pretty_formula,task_id,spacegroup.number,final_energy_per_atom,density,formation_energy_per_atom,volume,band_gap,min_abc,max_abc,Dimension,Dim,is_uv
ReTe3Br5,mp-669328,4,-3.619514976111111,5.075188173016218,-0.2796191233333332,1267.5604259229574,1.2816,8.893907,12.745045373420565,0.0,1.0,-1
PtI4,mp-669496,61,-2.56323682275,6.212422615679157,-0.1298451887499997,1502.6201481763824,0.6923999999999997,6.9901399999999985,16.00809,1.0,1.0,-1
Sb2Se3,mp-672706,62,-3.909600914,4.339933896914323,-0.16045353140624954,735.2397400908047,0.4983,3.808355,15.055699,1.0,1.0,-1
Tl6PbI10,mp-674339,159,-2.534747089117648,6.458831838652498,-0.5863534950000002,1389.6261223643273,1.2149,10.889901327338183,13.530674,1.0,1.0,-1
Tl3PbCl5,mp-674359,19,-3.2876708144444446,5.8920877020110565,-1.3913529373666669,1124.6122587800842,3.3948000000000005,8.721629,14.747176,0.0,1.0,1
Nb3IrSe8,mp-675066,9,-6.2979593725,6.187009719985805,-0.7054895923958332,591.8649747774748,0.0,6.966751632080549,15.231962040315262,2.0,1.0,-1
Nb9IrSe20,mp-675290,2,-6.404155864333331,6.074456382340858,-0.7485423532291662,712.8175627476038,0.0,6.906729,11.53338821442628,2.0,1.0,-1
Nb3IrS8,mp-675367,15,-6.8536371462500005,4.8286021891440445,-1.2764484400000005,500.3391426296697,0.0,6.72541297365515,13.952122008626535,2.0,1.0,-1
Nb15IrS32,mp-675380,1,-7.032171073125,4.3909694761855445,-1.3760527031250014,987.7431145080644,0.0,8.995527000000003,13.642059574170098,2.0,1.0,-1
Tl3In7Se10,mp-675519,2,-3.547706955,6.246146566107077,-0.4824139636718755,1173.1839439512069,0.9703,6.766217,16.65851091926208,1.0,1.0,-1
Bi2PbSe4,mp-675543,166,-4.076338825714286,7.47457739895918,-0.4368585970535714,209.05109502504283,0.4700000000000002,13.617498009473875,13.617498640488751,2.0,1.0,-1
Ag3SI,mp-676121,1,-2.914271885,5.912215314641317,-0.2153377866250004,271.07710159969986,0.3741999999999999,4.3196900000000005,13.2786736759478,2.0,1.0,-1
Bi2Te4Pb,mp-676250,166,-3.7216617957142857,7.526713326881914,-0.2836733085714285,250.5267557042342,0.5150000000000006,14.432779714230554,14.432780367569132,2.0,1.0,-1
ReSeCl,mp-676712,20,-6.491973707222222,6.283482226466428,-0.7605438274234717,953.3400166525496,1.5372,9.395234616985356,11.023337,2.0,1.0,-1
Ta4AgS8,mp-677597,2,-7.381140703461537,6.852304598363844,-1.3774802835897453,527.40356491838,0.0,5.807444,13.631800428478035,2.0,1.0,-1
As2Pb14Cl4O17,mp-680722,15,-5.368467810135135,7.648357758354693,-1.6255755759267565,1504.3350346165244,1.9593000000000005,11.503581247347498,13.190170832948676,2.0,1.0,-1
SnSe,mp-691,62,-4.179812505,5.834020472859625,-0.4270708386718751,225.05149498313725,1.3338,4.219403,11.789801,2.0,1.0,-1
Sb2Te,mp-6997,164,-3.863846442222224,6.281420401986868,-0.06341197222222268,294.3247954881338,0.014300000000000425,4.3658441619815065,17.830346,2.0,1.0,-1
GaAg(PSe3)2,mp-7008,163,-3.972238751,4.387248952182136,-0.2059695415372019,539.9558631241122,0.6699999999999999,6.457501327107956,14.951976,2.0,1.0,-1
Ni5Te4(BrO6)2,mp-704879,15,-4.848350493913044,5.230838416827583,-1.158101545,733.7376447103238,0.0,10.571472004446921,16.458248739396605,2.0,1.0,-1
PPdS,mp-7280,60,-5.337971909583334,4.61801446254666,-0.6492527301488096,487.46992329425314,1.0882999999999998,5.70915,14.879931,2.0,1.0,-1
HgPSe3,mp-7293,15,-3.3616740005000003,5.297887237658307,-0.1207338686205354,587.3051897192847,1.2149,6.720679801326425,15.190052634938727,2.0,1.0,-1
Te2Mo,mp-7459,11,-5.971334056666668,6.7635992264517695,-0.2605857600000003,344.8351496437276,0.0,3.486878,15.547921319264386,2.0,1.0,-1
BiBr3,mp-752602,14,-2.971887270625,4.420556783904416,-0.7716837881249998,674.1877057653687,2.9063,7.421479,12.729406,2.0,1.0,-1
Bi4O5F2,mp-753699,14,-5.487862970909092,7.1227594494618085,-1.8851752571481823,444.77531771159346,3.1039999999999996,5.421179,14.090383237087948,2.0,1.0,1
Hg2W2O7,mp-754961,13,-6.028004552272727,8.356325719011625,-1.7060707385227274,350.0810085976882,1.9785,3.875256,14.885947073244116,2.0,1.0,-1
TaS2,mp-755523,166,-7.737880481666667,6.455213808500706,-1.4699613604166677,126.0876575656068,0.0,12.944970054469495,12.94497030644358,2.0,1.0,-1
Sr7Bi23O40,mp-758327,12,-5.777284274285713,7.36666355790737,-1.904087464952381,1365.9702012763416,0.0,6.925485006075026,14.094253687924875,2.0,1.0,-1
Bi5O7F,mp-760319,73,-5.617763191730769,7.707384163081536,-1.7261955021107696,1013.3770640541277,2.5488,14.660207898919609,14.660207898919609,2.0,1.0,-1
Bi5O7F,mp-766358,2,-5.591159107692309,7.695616748128973,-1.6995914180723086,507.4633125811393,2.5000000000000004,4.192272,13.483164504419355,1.0,1.0,-1
Mg(IO3)2,mp-768315,60,-4.6951086863888865,4.695464498492883,-1.3481866761111103,529.2126774579214,3.3252,5.303923,14.780551999999998,1.0,1.0,1
Pb(BrO3)2,mp-769016,60,-4.248702249444444,5.158820688671585,-0.6419808091666666,596.1338380269782,3.2568,5.715423,16.519758,1.0,1.0,1
Mn(IO3)2,mp-771047,60,-5.136291159444443,4.815531558393668,-1.1359717859016858,558.2704169544402,1.9549000000000003,5.460386,14.965345999999998,1.0,1.0,-1
Sb4I2O5,mp-772282,14,-5.144152284090909,5.220421119116317,-1.4357561446590912,522.1980066086041,1.9316,5.298476,13.971192210940695,2.0,1.0,-1
Ni(IO3)2,mp-772376,60,-4.448308855833334,5.147432764747999,-0.8774027755555562,527.1195544873403,2.7882,5.2009370000000015,14.697107,1.0,1.0,-1
Hg2W2O7,mp-774407,15,-6.02669958090909,8.465441585065197,-1.704765767159091,691.1372328274975,2.2134,7.355386431312837,14.946538897155854,2.0,1.0,-1
NaBi5O8,mp-780238,7,-5.5219155523214285,7.355292773208839,-1.6126193011309518,1079.9390822132978,2.286,7.9104899999999985,16.426526000000006,2.0,1.0,-1
NaCu3O2,mp-780403,61,-4.578450768333333,4.074059876280625,-0.8945169076388885,800.9160915067056,1.2691,7.458152,14.343577,2.0,1.0,-1
GaGeTe,mp-8211,166,-3.8308529966666662,4.989099768840489,-0.2327115674999997,179.7054093150441,0.2841,12.417398510235063,12.417398548876696,2.0,1.0,-1
TlInS2,mp-865274,15,-3.87137713,5.415851090974155,-0.8565480190625001,940.2571649894752,1.3050000000000006,7.8864473372492006,15.378302498921654,2.0,1.0,-1
NaTlO,mp-867680,6,-3.7656074908333337,5.632576794886639,-1.1249506023611109,286.9943954186119,0.25059999999999993,3.649193,12.801778512297776,2.0,1.0,-1
HfSnS3,mp-8725,62,-6.405864296999999,5.187505555857997,-1.5287182358750002,503.70858137582235,1.2463000000000002,3.717037,14.260973000000002,1.0,1.0,-1
TaSe2,mp-8954,42,-7.079530366666668,4.399236768583486,-0.7963301715624999,127.90931308230229,0.0,3.475490163756761,12.595476752319186,2.0,1.0,-1
TaNiTe5,mp-8998,63,-5.060586936428571,7.3926609575749,-0.2956699421428561,394.2714647038008,0.0,7.209320372694018,15.254979999999998,2.0,1.0,-1
NbNiTe5,mp-8999,63,-4.850251457142859,6.732362939379902,-0.3362591185714286,389.5099814061814,0.0,7.124498421602253,15.270289000000002,2.0,1.0,-1
As2Se3,mp-909,14,-4.0745673255,4.2840218933406735,-0.11337307690624955,599.5944909233905,1.5414,4.504958,12.91540262084543,2.0,1.0,-1
AuF3,mp-942,178,-3.226190235,6.203961699415571,-1.3423072496425,407.8491859434718,1.5542999999999998,5.323642681861829,16.616946,1.0,1.0,-1
YTe3,mp-945077,63,-4.907221825,6.368255470249609,-0.9331283491666662,245.99703813014838,0.0,4.347122,13.199408848009256,2.0,1.0,-1
Tl4SnS3,mp-9622,130,-3.5703143509375,7.124289083592192,-0.5859201789843755,962.5684442809004,0.6965999999999992,8.14444,14.511395000000002,2.0,1.0,-1
BiS2,mp-971673,12,-4.310761945833334,6.022076048085303,-0.6987572645833335,301.2319904787284,1.1894,8.240615288324168,11.627245865731444,2.0,1.0,-1
SiAs2,mp-978553,55,-4.98559658625,4.061515016821064,-0.07107964291666669,581.9652148436082,0.8964000000000003,3.693517,15.222156,2.0,1.0,-1
AlTlS2,mp-985477,15,-4.484765790625,4.7847925438733405,-1.2214636546874995,820.4004148138057,2.1197000000000004,7.363102987874745,15.356295221146569,2.0,1.0,-1
SnS2,mp-9984,186,-4.46817588,3.841032282604105,-0.8163253504166667,158.08925340835899,1.4909999999999997,3.7008418377134142,13.328174,2.0,1.0,-1
TlGeBr3,mp-998746,62,-3.08743439,5.328087251216743,-0.7083422989999999,644.1780040635193,2.2918000000000003,4.2238760000000015,15.615168,1.0,1.0,-1