pretty_formula,task_id,spacegroup.number,final_energy_per_atom,density,formation_energy_per_atom,volume,band_gap,min_abc,max_abc,Dimension,Dim,is_uv
Se,mp-542605,14,-3.490177538125,3.5557010601019283,0.0057339395312499,1179.9971930821644,1.4032,8.485871000000001,13.640311289893795,0.0,1.0,-1
P4S9,mp-542630,14,-4.698408338269231,1.6979266958706276,-0.6284043192239017,1613.5896456845194,2.7178,9.225277,14.032190228664732,0.0,1.0,-1
Ga2Te2Cl7,mp-542662,14,-3.199109809318182,2.8280746547488578,-1.2791325636654547,1509.7518580454907,1.4191,9.626952,13.780868125491226,0.0,1.0,-1
AsS,mp-542810,14,-4.5314808553125,2.8780894675202973,-0.4654267193750004,987.6297781987818,2.1214,7.127198,14.702531,0.0,1.0,-1
FeS3N2Cl5,mp-554079,14,-4.443968771363637,1.9415259909882687,-0.7109531586759094,1222.422290855833,1.3504,9.576969,14.915447940528805,0.0,1.0,-1
SnHg2(SBr)2,mp-554096,14,-2.680289602142857,4.031226652106905,-0.5607516880357147,1225.5877026268374,2.4891,10.276943,11.97064757480079,2.0,1.0,-1
Br3N(O2F5)2,mp-554129,18,-3.592444582916667,2.8043506021048845,-1.1451437484322229,1202.4976260514795,1.4972,8.511809,15.523596,0.0,1.0,-1
Te2MoCl4O,mp-554135,14,-3.952800270625,3.5062163936313016,-1.0950109874112504,964.1546189058563,1.2255999999999998,7.190128,16.306345437068664,1.0,1.0,-1
HfMo2Se8(Cl7O)2,mp-554217,14,-4.0564366190740735,3.261147873580033,-1.1453621248848145,1558.5148598462415,1.1752,7.392906,15.685624607601097,1.0,1.0,-1
RePCl8O,mp-554317,62,-4.228405345909091,2.623034692820821,-1.3071065887183118,1308.6727417388327,0.0335,8.397014,17.114226000000002,0.0,1.0,-1
SbS2NCl8,mp-554625,14,-3.326910810625,2.1371743564367454,-0.9053890626841667,1502.741242316684,1.8083,7.795097,16.63242386586348,0.0,1.0,-1
HgAs4(S2I)2,mp-554735,14,-3.6816043281818183,3.7138146378952186,-0.4197735388636368,1578.0743522868274,1.9941,10.099525,15.899304,0.0,1.0,-1
Sb3Au3F22,mp-554764,7,-4.052144153660715,5.044933049560801,-2.14283160781,1809.1980460497064,0.1137999999999999,10.445918,15.834297724220832,1.0,1.0,-1
PNF2,mp-554776,14,-6.12374640025,2.179109598248409,-2.0720318210828568,1264.6174008751855,5.5601,7.622778999999999,14.954022,0.0,1.0,1
SbP(Cl3O)2,mp-554847,14,-4.10931912925,2.2803959899735777,-1.553646739313144,1157.6624202900346,2.2525,8.915936,12.05493,0.0,1.0,-1
Nb2AgPS10,mp-554930,15,-5.525336560357141,3.1557522662200452,-1.0125972308205786,1358.222839242014,1.4431000000000005,13.059491116329188,13.312042962645252,2.0,1.0,-1
SbTe(IF2)3,mp-554942,14,-3.6575507779545458,3.932591165861934,-1.80594706724,1256.725659311993,1.9328,8.706612,13.423431443080904,0.0,1.0,-1
Te3I(OF5)3,mp-554957,14,-4.165999125795455,3.5128354052486195,-2.120582588595455,1593.3578097518287,1.9785,10.015222,14.902107994190787,0.0,1.0,-1
TeAs(IF2)3,mp-555034,14,-3.5881243445454545,3.8802336007452456,-1.6883281642854546,1193.5055283178708,1.8929,8.462923,13.046725550470546,0.0,1.0,-1
LiBS4(ClO3)4,mp-555090,14,-5.416715923977272,1.9152045008540213,-1.8510948495700001,1664.0615471730832,4.6225000000000005,8.633714999999999,21.291799516442005,2.0,1.0,1
SbSNF5,mp-555255,14,-4.876328774453125,3.1364695528108766,-2.04417702901,2226.3454661926344,0.0,8.589048,16.508511,0.0,1.0,-1
BSBr,mp-555279,14,-4.662535265833333,1.9646153349341184,-0.7327658732638891,1245.3185087491029,3.6292,4.954436,18.926806582439106,0.0,1.0,1
Ga2S5N5Cl7,mp-555282,14,-4.540901396052631,1.9532772972499413,-0.7535088637023686,2101.4373358999,2.5009,8.812126,18.915165923597968,0.0,1.0,-1
SbS7IF6,mp-555408,19,-4.141178608833333,2.650076183519047,-1.575362360434334,1471.5334049139651,2.0004,9.42226,12.773598,0.0,1.0,-1
PNF2,mp-555443,14,-6.125136654875,2.1587010165601423,-2.0734220757078576,1276.5732239985246,5.4844,5.096917,16.26488311718486,0.0,1.0,1
MoP(Cl3O)2,mp-555695,14,-4.42175958475,2.111246557551928,-1.5475230158131432,1169.18048123962,2.6455,6.727192999999999,13.857531,0.0,1.0,-1
Hg3As8(S4Br3)2,mp-555833,14,-3.501338603,3.783550842649704,-0.4697599425999999,1700.311924204258,2.1064,10.200968,14.656154700574909,0.0,1.0,-1
S,mp-555915,19,-4.115865562222221,1.630828324773996,0.020584304652777358,2350.739973080468,2.5405,8.261497,22.76662300000001,0.0,1.0,-1
TaP4S4Cl5,mp-555967,2,-4.903856045714286,2.3206550088084974,-1.0701320866489803,873.4945828626904,1.8707000000000005,7.086509,14.11726447169564,0.0,1.0,-1
P4S(NF)6,mp-556050,14,-6.317177218897059,2.042839479300257,-1.5310438517694536,2301.954071491691,2.2497,9.625416,20.69857421699983,0.0,1.0,-1
S,mp-556269,14,-4.099271607638888,1.6208382663220364,0.03717825923611113,2365.228790517954,2.3376,8.499848,19.00802096679969,0.0,1.0,-1
Bi6As9Se4S10(O4F13)5,mp-556278,2,-4.83096219377193,3.5413250927873543,-2.2762702274822364,1931.67111360882,2.0126,10.568198,15.346888987292541,1.0,1.0,-1
FeS3(NCl2)2,mp-556297,14,-4.659384037125,2.024262560596812,-0.6784519608425008,2112.2559149807453,1.2118,11.835256,14.412562996508287,0.0,1.0,-1
LiAlS3(Cl2O3)2,mp-556310,62,-5.007414236,1.7837688519521102,-1.9032232348832216,1370.0326563997555,2.3552,9.759696,13.697134,1.0,1.0,-1
Ti4S8Br6O,mp-556341,14,-5.3509070863157895,2.7156499381005026,-1.4860064699780704,2307.471907327729,1.3943,9.706645,20.084746367166925,0.0,1.0,-1
AsS2NF10,mp-556406,61,-4.464083856428571,2.4219500382010395,-2.052435880395,1881.5753745496,4.5235,10.084601,15.151333,0.0,1.0,1
AuSCl7,mp-556587,14,-2.502560680555556,2.8713693273831136,-0.777690875660556,1103.882389422284,1.8347,9.08293,12.210672433472118,0.0,1.0,-1
Tl2OsCBr2OF3,mp-556622,14,-5.10238550475,5.739225251274267,-1.4065264987319992,1953.126783952469,0.7049,11.524739,17.940220447624522,0.0,1.0,-1
TlBiP2S7,mp-556665,14,-4.508051145,4.0976148056970025,-0.7453976830925328,1134.3078425269528,2.1830000000000003,9.196401,12.625944,2.0,1.0,-1
Te3W2Se4(Cl4O)2,mp-556693,9,-4.052814958684212,4.239104237868282,-0.9396602012081572,1082.6674120004943,1.0027,8.49063064792351,15.472138378097483,2.0,1.0,-1
AlSeS2N2Cl5,mp-556831,14,-4.247012502954545,2.0039580730166526,-0.9414064756503406,1244.1043454625844,2.2431,9.594147,14.886427815493818,0.0,1.0,-1
AgAs(S8F3)2,mp-556837,15,-4.185346121458333,2.2481495877173208,-1.2027289097419438,1196.3066143383874,2.7409000000000003,10.0573519462787,16.180680037850973,0.0,1.0,-1
TaP4S6Cl5,mp-557016,2,-4.8344439721875,2.3355035926910714,-1.0458117746459823,959.1337502454492,2.3162,7.253300999999999,12.224398348559413,0.0,1.0,-1
Sb8Cl2O11,mp-557022,2,-5.644408461904763,5.010368348661976,-1.7281212223938092,1618.6306891031436,2.8513,10.699742,14.246120790600436,2.0,1.0,-1
Sn(S4I)4,mp-557101,43,-3.722557198333333,2.252209414038703,-0.5952495704761899,1680.096765581416,1.7979,13.037816939072124,16.438782512001914,0.0,1.0,-1
Zn2TeCl2O3,mp-557130,56,-4.2375848078125,3.823934389050194,-1.6241489940962497,1310.8138164495774,3.6543,7.762507,15.863871,2.0,1.0,1
AlS2(NCl2)2,mp-557272,14,-4.5162452927777785,1.8697989314597727,-1.0038115321166674,926.9359890499594,1.0519,7.032298,16.688942,0.0,1.0,-1
TiP2Cl8O3,mp-557289,14,-4.896351833571429,1.921124514915855,-1.9327898364504423,1526.237201061438,2.7254,9.034207,16.017332999999994,0.0,1.0,-1
As2Cl3OF5,mp-557417,14,-4.124565075681819,2.6538011573947298,-1.903819086770909,919.0430001510852,3.3000000000000003,6.214348,19.375233,0.0,1.0,1
NaNb2PS10,mp-557436,15,-5.5703466301785705,2.6450037858076225,-1.1660289996896265,1407.347324965797,1.6443000000000003,13.031002090488665,13.706063887569544,2.0,1.0,-1
S,mp-557488,14,-4.1197759,1.616746403613377,0.01667396687500005,1185.6075027320285,2.446,7.817678999999999,17.362980425068613,0.0,1.0,-1
Sb2TeSeF10,mp-557635,57,-4.428032633482141,3.734786587094949,-2.349267188785267,2276.652345135975,1.5148,8.661482000000001,16.421737,1.0,1.0,-1
Zn2SeCl2O3,mp-557746,56,-4.18184181796875,3.3975157805685954,-1.524329685795469,1285.149900918943,4.0927,7.831078999999999,15.738087,2.0,1.0,1
SbIrC2(OF3)2,mp-557748,118,-5.9855350509375,3.769950837894706,-1.9492329842408327,1705.4447317538645,2.4943,9.738983,13.233113,1.0,1.0,-1
SbSCl9,mp-557809,12,-2.73041101,2.175444734690596,-1.013442837496818,721.9418017391823,1.7743,7.747866899542996,14.251038243202634,0.0,1.0,-1
S,mp-557869,4,-4.135588018125,1.5833551030390092,0.0008618487499999125,1614.1476307367702,2.7065,11.599142,11.861385954283126,0.0,1.0,-1
SbSe2S(NF3)2,mp-557904,14,-4.811173515208334,3.2529102642219283,-1.559335245184375,1853.0302516917263,1.555,10.183657,16.975796,0.0,1.0,-1
SbCNCl4O,mp-557961,176,-4.875117423125,2.295167732558608,-1.0539519852087498,1326.5491672359672,2.1439,10.536339,12.05733935735177,0.0,1.0,-1
SbSe(IF2)3,mp-558026,14,-3.620215982272727,3.8179575067214238,-1.7365567672257958,1209.8389614847265,1.4032,8.851510000000003,13.092972349954346,0.0,1.0,-1
Sb2SeI2F11,mp-558073,2,-4.09018559796875,3.695145088873707,-2.1884361817458595,1411.5535547750433,1.4004,8.23794,18.27272883236888,0.0,1.0,-1
SbC(Cl2O)2,mp-558165,2,-4.6938571665625,2.3734018497975797,-1.3360425685050004,860.791605023799,2.1067,7.124696000000001,16.682770445426268,0.0,1.0,-1
Zn2TeBr2O3,mp-558350,56,-4.09092003578125,4.463005492114408,-1.3817153312499997,1387.7347886077584,3.2936,7.8306809999999984,16.485903,2.0,1.0,1
Sb8Br2O11,mp-558592,2,-5.595489651547619,5.289826945296089,-1.6427190250595236,1644.7488810550894,2.6389,10.795889,14.274978773393713,2.0,1.0,-1
WSNCl5,mp-558716,14,-4.9222788446875,2.8574894955632293,-1.0906734186631248,946.4711151646744,1.0159,6.2881290000000005,16.785035206786812,0.0,1.0,-1
Sb2OsC4(OF3)4,mp-559010,33,-6.000299653804348,3.2721972570190694,-2.0689203837730425,1570.660041620069,3.6739,9.002715,16.341688,0.0,1.0,1
SnP2(Cl5O)2,mp-559064,58,-3.9164521735,2.016784082624844,-1.525386554649524,1867.9938168045176,2.8617,8.291071,15.065079999999998,0.0,1.0,-1
NiAs2S6(OF)12,mp-559097,14,-5.1538880256060615,2.4423703927082654,-2.070042573425151,1116.2409434000017,3.0298,8.092838,15.431773769409725,0.0,1.0,1
SiB11H10C4F11,mp-559162,14,-5.7483558552027025,1.5745118302351333,-1.3205406015573875,1746.9483676371815,3.4374,7.86211,18.491249306662358,0.0,1.0,1
MoS3(NCl4)2,mp-559303,14,-4.207027511607143,2.1899167890445965,-0.8355728816225003,1527.97358339775,0.4986999999999999,7.676201,16.692566,0.0,1.0,-1
Sb2ClF17,mp-559349,14,-3.63638587475,3.1830261879951363,-1.9533255881745,1256.1060427073594,0.3186,8.579119,15.986625045310344,0.0,1.0,-1
C2SNCl2F5,mp-559455,14,-4.968529574772727,1.8805770661692325,-1.3785772041340905,1667.0307196153708,3.4119,5.4468809999999985,19.45595963947552,0.0,1.0,1
TiPCl7O,mp-559493,61,-4.459364205875,1.8848254605377768,-1.826224187472476,2417.554077896839,2.6595,13.034221,14.091866,0.0,1.0,-1
AsSe(IF2)3,mp-559575,14,-3.550283254772728,3.7411573923246846,-1.6184315701803411,1151.5168492228552,1.3837,8.696952,12.798858887184007,0.0,1.0,-1
AgSb(S8F3)2,mp-559602,15,-4.216658084583334,2.326262989380092,-1.2561290880752776,1223.0045445552037,2.7457000000000003,10.112073141802773,16.37794266934724,0.0,1.0,-1
SbSNCl5,mp-559738,122,-3.5966448103125,2.3045943450096016,-0.868680038038125,1989.2318258807595,1.7869,13.737695780903433,13.737695780903433,0.0,1.0,-1
Sb2BrF17,mp-559807,14,-3.72270923675,3.3400416286997587,-2.0204951720115,1285.4537141519422,0.14449999999999985,8.657762,16.134298051378657,0.0,1.0,-1
AgBTe4C(OF4)5,mp-559834,14,-4.712991119609375,3.4582517511996844,-2.1832641754182287,2114.761924503148,2.5124,10.240014,16.629416,0.0,1.0,-1
Nb(PS4)2,mp-559923,64,-5.349107681136363,2.0789600229078116,-0.9207626176948054,1314.3156790794128,1.2763000000000002,10.821982,11.781805904020699,2.0,1.0,-1
AlS2NCl6,mp-559940,11,-3.796276948,1.7907785709468995,-1.1795635868189998,1178.8827486302291,1.6836,6.4115,13.796914,0.0,1.0,-1
ZrMo2Se8(Cl7O)2,mp-560057,14,-3.992626343888889,3.0588295583332603,-1.1337551171070372,1566.8510210716531,1.1741,7.404163,15.698258302098358,1.0,1.0,-1
SbAs3(S2F3)2,mp-560107,57,-4.560883450357143,2.9999892104320103,-1.6664822556885714,1303.5836922717306,2.3354,6.195598,20.810001,0.0,1.0,-1
TaP4(SCl)5,mp-560192,2,-4.869420363666666,2.3551913506611326,-1.0597453440807143,905.9008936278276,2.177,6.931042999999999,13.659534648981163,0.0,1.0,-1
SnSe2(Cl4O)2,mp-560193,15,-3.416934107307692,2.5045777351226324,-1.1458930640974998,785.3291178882757,2.775,6.843764064202683,16.848124102354213,0.0,1.0,-1
MoPCl8O,mp-560214,62,-3.8306193336363634,2.097926664701054,-1.375673681445584,1350.4411432010095,1.4825,8.4212,17.238945,0.0,1.0,-1
NbPCl8O,mp-560255,62,-4.389355996363636,2.052960086827817,-1.6810774341728567,1370.205257952402,2.3872,8.622336,17.124848999999998,0.0,1.0,-1
P3S3N6F5,mp-560409,61,-6.061338583676473,1.9696897425212831,-1.268608526048194,2482.9289879887265,2.1283000000000003,10.005615,16.392570000000006,0.0,1.0,-1
Te4Mo(OF4)5,mp-560414,14,-4.5786402945,3.147043009979808,-2.261067735501668,2250.545937974674,2.9757,9.452796,20.802316329320764,0.0,1.0,-1
TiSCl6O,mp-560517,14,-4.245525904166667,1.9378644048468383,-1.674719991640926,1057.9158898853048,2.659,7.915578,12.971237508560586,0.0,1.0,-1
NbSe2SN2ClF6,mp-560589,14,-5.390367818076923,2.800527144033072,-1.8328128936901917,1091.8318297885871,2.1919,8.543657000000001,13.716427663236265,0.0,1.0,-1
TaSCl7O,mp-560884,62,-4.43862120875,2.5147490099348992,-1.6032822284695,1260.374654071484,2.8496,7.694843,17.020024,0.0,1.0,-1
PdSCl,mp-560901,14,-4.124287824166667,3.5984346400136222,-0.8220469396283341,1284.251061634633,0.9775,9.254538,16.849502594299484,0.0,1.0,-1
MoSeS2Cl5,mp-560907,15,-4.1213404308333335,2.502726026666845,-1.0594749724881949,1104.8338545484219,2.0114,10.15007988234206,14.224560855391953,0.0,1.0,-1
Sb2IBr2F11,mp-560928,61,-3.957105243984375,3.570453873951253,-2.1644852660525,2750.3399221101354,1.6859000000000002,12.868021,14.774069,0.0,1.0,-1
AsSe2S(NF3)2,mp-560986,14,-4.753383853125,3.0706522588016587,-1.4573691526843746,1760.383373275553,1.5689,10.12706,16.594129000000002,0.0,1.0,-1
NbP4(SCl)5,mp-561020,14,-4.707077912,1.9896979407006663,-1.0145010650807142,1850.710312456731,1.5808,7.272447,18.74227848161317,0.0,1.0,-1
NbP4(S2Cl)5,mp-561160,2,-4.60067025575,1.9082919421709488,-0.9629901538417862,1243.8500881417951,1.1953,10.302194,12.326450921351773,0.0,1.0,-1
AsSeS2N2ClF6,mp-561321,14,-4.618129545480769,2.609322929226686,-1.4809675630772114,2013.367536329484,2.2257,9.545536,19.990687,0.0,1.0,-1
GaRe(Cl3O)2,mp-561379,14,-4.679184949,2.8175049563914443,-1.5304790004560005,1180.2549884888665,1.9694,8.663964,12.456848444857993,0.0,1.0,-1
NbTlCl4O,mp-561523,61,-5.030577588571427,3.734947900179337,-1.92714510347,1618.6852246170627,2.1768,8.085407,15.330447,1.0,1.0,-1
ZnCoTeBr2O3,mp-561705,56,-4.39568115234375,4.40842356096472,-1.1896546746875,1385.4025778540795,2.6265,7.806239,16.439753,2.0,1.0,-1
Sb3C2N(OF8)2,mp-566334,14,-5.1989909165625,3.058344860374893,-2.2817754838091666,1605.5816082506194,3.9607,7.567188000000002,21.558399804032877,0.0,1.0,1
Nb3Se12I,mp-567252,114,-5.1703366478125,4.834589833423517,-0.5591575561328126,1859.0597378839248,0.0849000000000002,9.784904,19.416914,1.0,1.0,-1
TeI4,mp-567269,31,-1.967734415,4.224738052159862,-0.11986413700000005,1997.3860485926627,1.8301,7.547928999999999,17.422567,0.0,1.0,-1
HfI4,mp-567273,205,-4.0940441655,3.51101528866786,-0.8833963035000003,2595.9646312434675,3.2852,13.743571,13.743571,0.0,1.0,1
Ag(BCl)6,mp-567334,205,-4.824103894903846,2.5542854862403708,-0.9447183188443588,2004.6574742090008,2.6955,12.608983,12.608983,0.0,1.0,-1
BP(IBr)3,mp-567433,62,-3.015357110625,3.3740714763941937,-0.3184202234672622,1303.61892876206,1.9337,7.964903,13.639435999999998,0.0,1.0,-1
Pd(Se4Cl)2,mp-567437,61,-3.5202991115909086,3.927865214831496,-0.2789467857063638,1368.0571960984973,1.3419,9.21511,14.468399,2.0,1.0,-1
Nb3Se10Br3,mp-567731,11,-5.03419504984375,4.319642414313509,-0.6483319550585938,2011.3116781167828,1.2232,8.02314,19.578059,1.0,1.0,-1
AlAs3(SeCl)4,mp-567734,15,-3.9295967329166666,2.895895612638831,-0.8694316610345835,1627.1078969632047,2.4318,12.519789176331404,14.488579614287973,0.0,1.0,-1
AlSb2(TeCl2)2,mp-567743,2,-3.717216388333333,3.6193566224073535,-1.1277070464488892,2450.00959887164,0.7508999999999997,9.85488,18.56542872468636,1.0,1.0,-1
TeI4,mp-567914,141,-1.9628891872499998,4.307955397028141,-0.11501890924999998,1958.8022777960816,1.8130000000000002,14.012080048041975,14.012080048041975,0.0,1.0,-1
GaSe2NCl6,mp-567956,14,-3.39346383025,2.4889022135304035,-0.8439141796627496,1212.5752668779526,1.6369999999999998,10.196152,11.814378,0.0,1.0,-1
P,mp-568348,13,-5.408668775833332,2.1490901450835844,0.004617085595237806,2010.3316394110086,1.7644000000000002,9.260506,24.11237675762508,2.0,1.0,-1
AlPI8,mp-568423,33,-2.47591623425,3.4400323614548776,-0.3408199731071431,2072.161531990359,1.4267999999999998,11.19623,16.230963,0.0,1.0,-1
Mo(SeCl6)2,mp-568726,43,-3.152896978333333,2.489920123614146,-0.9606517979205,906.0511902267875,0.0,9.003146575899171,12.945101420842905,0.0,1.0,-1
Bi20(PtBr12)3,mp-568819,12,-3.2785941616949152,5.44694570666429,-0.6524456062711863,2329.5348529266244,1.2075,11.588882400083154,18.741911723650922,0.0,1.0,-1
TaBr5,mp-568846,62,-4.2832149570833336,4.162935338037316,-0.9428132354166668,1852.3268095745573,2.0283,6.7198910000000005,19.581963,0.0,1.0,-1
SbAsPCl13,mp-569209,36,-3.08205546,2.1442577005254466,-1.1757136972469642,1066.4341435341428,2.1274,9.840591427982416,12.179556,0.0,1.0,-1
TlGaBr4,mp-569348,14,-2.901788643125,4.30334683422461,-0.912212869375,1832.8043020297198,3.5506,11.616549,13.10693111417974,0.0,1.0,1
TeCl4,mp-569561,15,-2.71628005875,2.505711732417357,-1.0845390913580002,1428.3180151110041,3.1084,10.541003818728507,16.218001092010383,0.0,1.0,1
BP2N2Cl7,mp-569608,14,-4.635909797916667,1.8146028304508053,-1.1202544057407935,1277.2676149120407,3.0652,8.652038000000001,15.825563194534215,0.0,1.0,1
AlPH8(CCl2)2,mp-569751,14,-4.521952586171875,1.3863228730788766,-0.8628450680825894,2221.7027646912743,5.4006,11.676341,14.870628255599186,0.0,1.0,1
Si(H3C)2,mp-569770,2,-5.099215879444444,0.9468814049278536,-0.2861830585244441,1631.763134307367,3.5723000000000003,10.655335,14.754026236720946,0.0,1.0,1
Al(BH4)3,mp-569787,33,-4.11249984703125,0.6183652554505286,-0.19621290458999985,768.1210830273068,6.2431,6.376631,18.61154,0.0,1.0,1
TiBr4,mp-569814,205,-4.1202245622500016,2.5958186983565117,-1.231584926916667,1880.6240303229674,2.8424,12.343377,12.343377,0.0,1.0,-1
Ga3Bi5Cl12,mp-569854,161,-3.39702972175,4.2811861968144616,-1.2179962328309997,1302.8571325411242,1.8018,12.456355951476981,12.456355970876595,0.0,1.0,-1
MoCl5,mp-569855,62,-4.1394120175,2.4779248626313684,-1.2869290318833333,1464.6693530769696,0.0,6.488178,18.267614,0.0,1.0,-1
Cs(BBr)6,mp-569897,148,-4.613396984423077,3.1149319223770044,-0.7062191200331562,1444.024500857377,2.8672,17.21554288459182,17.215543230905062,2.0,1.0,-1
Bi8AsAuCl9,mp-570053,14,-3.5471004269736843,6.523073147792586,-0.8977355208863159,2304.117468451485,1.3163,10.52038,15.137072,0.0,1.0,-1
ZnSi4As2(H3C)12,mp-570146,2,-5.021720958727272,1.2978480412259492,-0.3011550549149082,1299.9485825562238,2.7616,9.997024,12.748375630347107,0.0,1.0,-1
Ga2Te2Br7,mp-570186,14,-2.8337314540909087,3.62837496619272,-0.66997885,1746.35875319456,1.3212,10.473173,14.376409200663463,0.0,1.0,-1
NbAsPCl13,mp-570225,36,-3.655844333125,2.0808356616799784,-1.3762335828719643,1052.8868465094718,2.4431000000000003,9.788371275081056,12.11086,0.0,1.0,-1
SiBr4,mp-570285,205,-3.22837502025,2.5460974809433576,-0.8337709842500004,1814.1392577050808,4.1057,12.196172,12.196172,0.0,1.0,1
Ca5Ir,mp-570356,62,-3.38279816125,3.179360136867892,-0.23839319124999986,820.2144246079354,0.0,6.799129,15.778806,2.0,1.0,-1
TcBr4,mp-570480,61,-3.6686431505000003,3.91943089632428,-0.2869779364999999,1415.4456627620568,0.6025,6.482693,15.995966,1.0,1.0,-1
Se,mp-570481,14,-3.49591147765625,3.4384072413339237,0.0,2440.500485179196,1.6545,10.153863,15.739181715003642,0.0,1.0,-1
TaPNCl7,mp-570489,14,-4.8602510064999995,2.6023972535615942,-1.4602017548771429,1210.0542724796123,3.1658,6.903638000000001,15.525027976733375,0.0,1.0,1