pretty_formula,task_id,spacegroup.number,final_energy_per_atom,density,formation_energy_per_atom,volume,band_gap,min_abc,max_abc,Dimension,Dim,is_uv
PNF2,mp-31489,14,-6.1253957875,1.8733336607126383,-2.0736812083328564,588.4141141863125,5.085,5.375166,14.796419,0.0,1.0,1
Co(ReO4)2,mp-31516,164,-7.897161749090909,4.737320856182404,-2.07091666590909,392.1245474817153,0.0,5.805558145071497,10.032263779334453,2.0,1.0,-1
Mn(ReO4)2,mp-31907,164,-8.250273528863637,4.555970907268488,-2.2197976707377425,809.6415140667062,3.0833,5.961656027948022,14.442231446834311,2.0,1.0,1
K2SbF5,mp-3379,63,-4.62027698875,3.2803970215406366,-2.93870826336875,298.6063554450978,4.7799,6.6346690000000015,7.725483003192098,2.0,1.0,1
PbF4,mp-341,139,-4.1011324280000006,5.8078560490998665,-2.222162906952,80.96861449224046,2.0001,5.2444173108150896,5.2444173108150896,2.0,1.0,-1
SbPO4,mp-3439,11,-6.786311613333332,4.083765063315022,-2.3654867839285707,176.2544553756885,4.079,4.873392,6.8849,2.0,1.0,1
NaAsO2,mp-3468,61,-5.4908139815625,3.0906948227850672,-1.874538591770833,558.3751838524648,3.7378,5.170685,15.903076,2.0,1.0,1
BeTl2F4,mp-3733,62,-4.744575399642857,6.639357811104554,-2.7238726338942856,493.9805173341797,4.5802000000000005,5.912223,10.712263,0.0,1.0,1
AsSClOF8,mp-41092,14,-4.225417763958333,2.7200037182012515,-2.14241561497125,758.0502503825551,3.9969,8.491977,12.346472721881865,0.0,1.0,1
Tl2SiF6,mp-5033,225,-5.035937163333333,5.634976363465802,-2.9612792985711116,162.32464231906297,5.1981,6.12303136555236,6.12303136555236,0.0,1.0,1
Mo(PO3)5,mp-504210,11,-7.174152082142857,2.4872144362026347,-2.504339969362245,655.3453908293893,0.05220000000000002,5.334551,14.017658,2.0,1.0,-1
Be2TlF5,mp-504450,13,-5.3360350609375,4.266019238855963,-3.2181313885562504,494.1886464700344,4.8778,4.708421,12.829997196671908,2.0,1.0,1
OsOF5,mp-504576,62,-5.249269625357143,4.416533859366576,-2.024162398528571,453.01582181127725,0.7868000000000002,5.237895,9.694599,0.0,1.0,-1
AlTl2F5,mp-504676,63,-4.93594569375,5.689761734204137,-2.98949163636875,309.78968965557164,4.267799999999999,6.43957834055344,7.517869,1.0,1.0,1
MoF5,mp-504759,12,-5.033364612083333,3.174189307292952,-2.6304656622416664,399.5351769401384,1.0047,5.471636374924141,8.856999192415566,0.0,1.0,-1
MoPO5,mp-504818,85,-7.2520043535714285,3.758934454158149,-2.4011106056887748,182.8089357721581,2.5038,4.631426,6.282628,2.0,1.0,-1
Zr(MoO4)2,mp-510456,164,-7.731762511818181,3.371914001693188,-2.537007017272728,202.45067979349997,3.1226000000000003,5.9598656889659845,6.581360000000001,2.0,1.0,1
V2O5,mp-510568,11,-7.412333229285713,3.589614670078475,-2.2648847316071428,168.273685724939,1.734,3.61438,7.303074597461674,2.0,1.0,-1
InTeO3F,mp-510727,14,-5.338171254166666,5.568418886234493,-1.996082720823333,369.07786349211136,3.241,5.5182160000000025,8.314253491142846,2.0,1.0,1
Fe(PO3)5,mp-540145,11,-6.912137717380952,2.3561295917193967,-2.317451326028912,635.2901361112079,0.5433999999999999,5.2286150000000005,13.806308,2.0,1.0,-1
Te7(OF5)6,mp-540553,2,-4.303014543488372,3.827250452739788,-2.2078144658883723,676.4717961912432,2.3841,9.103319,9.350858313207723,0.0,1.0,-1
Ti4Tl2O9,mp-540598,12,-7.982890383666668,5.72672999449808,-3.0151395006388886,431.5976699763295,2.7434,9.896479305102444,12.214761994898836,2.0,1.0,-1
WOF4,mp-540636,12,-5.77067707875,4.752822027995914,-2.681511666418333,385.4817124768397,3.1189999999999998,5.4322194862670985,8.758546206010962,0.0,1.0,1
RuF5,mp-540829,14,-4.655697052708333,3.5857738986700065,-1.9261736653666663,726.3561981197093,0.6512000000000002,5.633451,12.831773339381034,0.0,1.0,-1
OsF5,mp-540830,14,-5.123930873958334,5.092809890206406,-2.0689166874500002,743.9858316850932,0.7152000000000001,5.697575,12.878734124233056,0.0,1.0,-1
TlPF6,mp-540850,205,-4.87496908125,4.454444859252479,-2.8376891257139283,520.9225020675274,6.6195,8.046204,8.046204,0.0,1.0,1
Hg2AsF6,mp-540925,14,-3.577389483611111,5.810667888510214,-2.045191712737777,674.5323391880889,0.7400000000000001,5.576503,11.871731,0.0,1.0,-1
Te6Mo(OF5)6,mp-540984,2,-4.45591267,3.6790705411633233,-2.2637046365860467,689.4280207489716,2.7158,9.350113,9.467278436408533,0.0,1.0,-1
Nb2Hg3S(O2F5)2,mp-541093,43,-5.3569521325,5.013694447362727,-2.56821191975125,711.1735935179636,2.3641,9.3147968087078,12.313504641779652,1.0,1.0,-1
Ta2Hg3S(O2F5)2,mp-541094,43,-5.6697022585,5.837491082153576,-2.7053147867512504,710.9890943643375,2.4424,9.306227817609294,12.309121503538424,1.0,1.0,-1
Sb3O2F5,mp-541240,13,-5.2200332925,4.509059656690215,-2.421924759845,725.1489078013948,3.7837000000000014,6.087159,13.460850035260995,2.0,1.0,1
ZrPb2F8,mp-541593,62,-5.794863851363636,6.7571670174442415,-3.309646047683636,646.4183157968042,5.2294,5.517271,11.835745,1.0,1.0,1
ReSbOF9,mp-541654,14,-5.338007715625,4.234275465928732,-2.5376622907883344,776.4135201204327,1.0119,5.78464,12.978013601119473,0.0,1.0,-1
P4O9,mp-541846,167,-6.973432208269231,2.3214559982127234,-2.3684989263873626,766.4865952819322,5.5685,10.452761498670581,10.452761540662447,0.0,1.0,1
HfNCl,mp-541911,166,-8.582878554999999,6.899026436060238,-2.195041216879998,109.73124558308191,2.2366,10.087728101328764,10.08772824642159,2.0,1.0,-1
P2Pb3O8,mp-542152,15,-6.628204487307693,6.956855166273604,-2.3259093578571424,387.41597035110163,3.5371,7.612415413185555,9.4919093559206,2.0,1.0,1
Sc5Cl8,mp-542449,12,-5.351232632307694,2.525690550772592,-2.144066990852308,334.2547141098796,0.0,9.71371635093742,13.482178416937115,2.0,1.0,-1
Mg(AlCl4)2,mp-542463,15,-3.787396586363636,1.791556498769754,-2.049011175098181,670.853453403541,5.1644000000000005,9.809489162327312,11.696483758322284,1.0,1.0,1
P4O7,mp-542622,14,-6.8114851643181815,2.029230183335191,-2.141230461866883,772.1272269144046,4.3807,6.9423020000000015,11.76533120943244,0.0,1.0,1
ZrNCl,mp-542791,166,-8.008816946666666,4.241729606509205,-2.0908090152133325,110.14883151690935,1.7419999999999995,9.793670035254607,9.793670480413152,2.0,1.0,-1
Ca2Cu(BrO)2,mp-545481,139,-4.9512719785714285,4.171489837215984,-2.111901914642857,133.55551405583833,0.0,9.265753889339386,9.265753889339386,2.0,1.0,-1
ZnWO4,mp-545622,15,-6.4846554933333325,6.546533608625842,-2.0097335008333324,158.9110353284531,3.5492,4.880814346968136,7.4290126222865585,2.0,1.0,1
Ca3Cu2(BrO2)2,mp-545706,139,-5.258710013636363,4.346532269748378,-2.124916565,179.99001934363963,0.0,12.269602258715684,12.269602258715684,2.0,1.0,-1
ScBrO,mp-546279,59,-7.094078458333333,3.654161159472919,-3.022391420416666,128.0197453054515,3.2685000000000004,3.576368,8.983874,2.0,1.0,1
Sr2Cu(BrO)2,mp-546898,139,-4.888289064285714,4.735093032138266,-2.13923860797619,151.0036152074914,0.0,9.878399681682453,9.878399681682453,2.0,1.0,-1
V2MoO8,mp-546989,35,-7.263148207272727,3.4696261497221843,-2.16462285090909,155.9343359666035,1.3696000000000002,4.333199,9.867501875540992,2.0,1.0,-1
Sr2Cu(IO)2,mp-549487,139,-4.6531274385714285,5.111788396202684,-1.936338103690476,170.41167040695782,0.0,10.73303809967015,10.73303809967015,2.0,1.0,-1
TiZn(BiO3)2,mp-550469,99,-6.433426217999999,7.312612163628576,-2.1924965120833333,142.4313513642857,1.0248999999999997,3.782273,9.956343,2.0,1.0,-1
Co(ReO4)2,mp-550479,147,-7.896942506363636,4.776586351016439,-2.070697423181819,388.9011232071462,0.0,5.7951904638554375,10.039781304834383,2.0,1.0,-1
YBi2IO4,mp-551816,123,-6.36827724375,7.656378784706027,-2.2741254658333325,151.3342340540907,1.4507000000000003,3.95211,9.689004,2.0,1.0,-1
YClO,mp-552120,166,-7.5091693200000025,3.83273626509135,-3.520506800392223,121.62086891676823,4.4621,9.838540624068845,9.838541305936873,2.0,1.0,1
YBi2ClO4,mp-552604,123,-6.51972049625,7.314987307924013,-2.4593389231158334,137.6370782335932,1.4316,3.901229,9.043417,2.0,1.0,-1
YBi2BrO4,mp-553243,123,-6.4527704575,7.529211582333204,-2.3445044389583334,143.52447007380331,1.4036,3.919674,9.341703,2.0,1.0,-1
P2Pb3O8,mp-553956,12,-6.6123138161538435,7.290286276468711,-2.3100186867032964,184.8484882914275,3.1837,5.54308465587384,7.58101384251559,2.0,1.0,1
LiRe(OF2)2,mp-554108,113,-6.19906565625,4.712754945381044,-2.633192965699167,212.21363121227142,3.1539,4.839077,9.062504,2.0,1.0,1
BaPb2BrF5,mp-554116,129,-4.911094493888889,6.693404205418839,-2.9017675851055564,360.52981942488685,3.7525,6.042602,9.874002,2.0,1.0,1
NaSbCO2F3,mp-554239,15,-5.763463206875,3.440578903402696,-2.3355362699254165,474.4374995365727,3.1662,8.492972587157455,9.32751648480071,2.0,1.0,1
BaPb2IF5,mp-554245,129,-4.8508123733333335,6.755701128668032,-2.8540314562166667,380.31049535063113,3.3127,6.130211,10.120162,2.0,1.0,1
SnSb2As2F18,mp-554260,7,-4.678917778695652,3.4637394637742074,-2.628669363322609,818.8688562116716,3.4557,6.184933,11.698365,2.0,1.0,1
ReSbOF10,mp-554432,3,-5.255736718076923,3.7906794660632186,-2.5615293925500007,450.28063083280153,2.0037000000000003,6.698075,8.220395381122978,0.0,1.0,-1
SrTa2Bi2O9,mp-554675,139,-7.924510732142857,8.611853618018099,-2.8247897069940486,195.03203960702632,2.0651,12.88926010521209,12.88926010521209,2.0,1.0,-1
SbP(OF3)2,mp-554701,2,-5.356776302,3.134459404780975,-2.7010844178211437,316.50828185377566,4.4149,5.700325,7.6162566601318655,0.0,1.0,1
V4HgO10,mp-554760,12,-6.969759136,4.516387234072778,-2.1452285138333336,414.9888721524134,0.0,9.820379237501218,11.634355105905485,2.0,1.0,-1
BaSb2F12,mp-554765,1,-4.831858153333333,3.783466765700701,-3.016953158952,267.2105962875023,4.0411,5.7396410000000015,9.436771037944599,2.0,1.0,1
VF4,mp-554799,14,-5.643858995,2.9527302598391967,-3.027037673952,142.77004343712494,2.3144,5.240981,5.707204040023887,2.0,1.0,-1
VPbClO3,mp-554803,62,-6.235131509583333,5.477167228707441,-2.0508980890849995,414.2491908900389,2.4171,5.359289,10.570388,2.0,1.0,-1
Y2Te5O13,mp-554852,2,-6.388484008250001,5.259345065120024,-2.1963291097291657,646.4935658100397,2.9904,7.055092,10.794837376417767,2.0,1.0,-1
CrF4,mp-554855,15,-5.298972081750001,3.0881704481406564,-2.634522480702,550.5704346216421,1.5653,7.369462188167126,9.106305509163473,1.0,1.0,-1
Tl4Mo5O17,mp-554919,2,-6.426227431923077,5.628091318252455,-1.8802220458173082,925.9821663719375,2.5425,7.96939,11.18268017387424,2.0,1.0,-1
WF6,mp-555003,62,-5.270984482857143,4.183681722712121,-2.823780586734286,472.845765124648,5.3621,5.2562940000000005,9.94958,0.0,1.0,1
MnSb2F12,mp-555052,2,-4.935712174,3.6909919827259485,-2.7500148136596776,236.83940148181247,3.2674000000000003,5.360693575746891,9.26316720314877,2.0,1.0,1
TcSb(OF4)2,mp-555059,14,-5.287572499375,3.4120500102524964,-2.42545973621,785.9627455386218,2.8188,7.554266,11.98165371528409,1.0,1.0,-1
Sn2IF3,mp-555077,63,-4.3655694325,4.865926218641241,-2.0647683114283333,287.55791027943536,2.3739000000000003,7.293912440666463,9.473694,2.0,1.0,-1
MgAs2S2(OF3)4,mp-555121,14,-4.9348941517857146,2.5138874920120866,-2.463762719668096,1401.0362296403935,3.5807,10.38397,16.178740785138164,1.0,1.0,1
SiHg3(SF3)2,mp-555194,164,-3.9431957075,5.754469080936183,-2.126059403199166,233.15366888466642,2.7984,4.90985,7.404942965141728,2.0,1.0,-1
BN(OF2)2,mp-555207,14,-5.76695097625,2.094611117161563,-2.166276547350834,421.1500243401834,3.0022,6.665239,9.324626180610194,0.0,1.0,1
PNF2,mp-555292,14,-6.1266400059375,2.0902522539201978,-2.0749254267703567,527.3506891219996,5.1673,5.210614,14.194371,0.0,1.0,1
AsIF12,mp-555340,205,-3.707919015,3.200930983043802,-2.048652398877143,891.8794766566213,0.6263999999999998,9.625768,9.625768,0.0,1.0,-1
KRe2O4F7,mp-555490,13,-6.350639859285714,4.389971661949248,-2.570213707237857,460.33823374282633,3.0464,5.314603,15.81942239125642,2.0,1.0,1
OsOF5,mp-555514,33,-5.248807440714286,4.5020019179504684,-2.0237002138857143,444.4155627479441,0.8102,5.165511,9.685951,0.0,1.0,-1
SbTe(ClF2)3,mp-555629,62,-3.9073474768181815,3.144265063927252,-2.129424212901818,992.245659540416,3.747,6.539933,17.501263,0.0,1.0,1
SbMoOF9,mp-555680,14,-4.9749057854166665,3.2869100953729067,-2.60205070683,817.7836089116478,3.7184,7.684971000000001,12.232699405710663,1.0,1.0,1
ReO2F3,mp-555704,64,-6.6198209935416665,4.409581756388143,-2.420236239553334,829.0709692755478,3.3417,7.745792324506126,13.878516,0.0,1.0,1
Sr2Cu(BiO3)2,mp-555827,66,-5.7519191727272725,6.928457216674173,-2.048989117348485,360.8189966762927,0.0,5.133051999999998,13.018800648867314,2.0,1.0,-1
SnPO3F,mp-555838,14,-6.445526157083332,3.6340094043973816,-2.515458781001905,396.0432363706784,3.9434,4.792567,13.112759,2.0,1.0,1
Sr2CaCu2(BiO4)2,mp-555855,139,-5.730291988666665,6.5854215372455025,-2.041734115555555,224.0048628771904,0.0,16.128153502743828,16.128153502743828,2.0,1.0,-1
P4PtF12,mp-555863,217,-5.2686347094117645,3.0262525583432165,-2.6350668999156306,300.1230867946913,4.9933,7.305339973115557,7.305339973115557,0.0,1.0,1
TlAsF6,mp-555911,148,-4.43753848625,4.8746007870250505,-2.4945294627675003,133.97655947146606,4.6652,5.156959330010758,5.156959338473109,0.0,1.0,1
Sb4RuC6(O3F11)2,mp-555952,14,-5.672505616538461,3.0295407613805354,-2.1371934480430763,1287.1243344430245,4.4456,9.991891,12.783767999999998,0.0,1.0,1
VOF3,mp-556026,14,-5.9127306435000015,2.686559997801523,-2.730886255464,306.41526996848165,3.6569,5.382403,9.696631644278645,0.0,1.0,1
NaAsO2,mp-556145,61,-5.4889081403125,3.1665248050509405,-1.872632750520833,545.0035594705251,3.6419,5.171219000000002,15.512049,2.0,1.0,1
SrSbSe2F,mp-556194,129,-4.651360583000001,5.111566554445695,-1.8051894665088333,250.985126788928,0.8536999999999999,4.124,14.757428,2.0,1.0,-1
TeAs(ClF2)3,mp-556325,14,-3.839236302272727,2.940055004874847,-2.0131205688109093,955.3479051926104,3.9703,9.050432,11.747586751584516,0.0,1.0,1
ReO2F3,mp-556419,14,-6.615918067916668,4.851309532479483,-2.4163333139283343,376.79065790304253,3.4309000000000003,5.098442,13.089065906596426,1.0,1.0,1
NbCl3O,mp-556422,113,-5.742837615,2.70162022797068,-2.1211329272060007,529.2462251388408,2.8184,4.001072,11.501135,1.0,1.0,-1
SbF4,mp-556425,14,-4.64571859725,3.9454594739427256,-2.683478242202,1331.6678649345329,3.4408000000000003,9.607517,12.255957,1.0,1.0,1
Sb2BrF15,mp-556436,14,-3.928713181944445,3.4475621738756623,-2.195203124880556,1172.1581765582405,0.0,5.412007,14.829873,1.0,1.0,-1
Tc2O5F4,mp-556442,14,-6.4171084845454525,3.201796266697576,-2.086947784637272,730.2078145449748,1.8738,5.487031,15.40852,1.0,1.0,-1
Sr2FeBrO3,mp-556507,129,-5.920424660357143,4.837273342753481,-2.5647263270833327,492.93246651224166,1.3007999999999995,5.620385344089229,16.101730717315515,2.0,1.0,-1
AsSOF9,mp-556515,62,-4.353203476875,2.6930703329305947,-2.2563097314654166,725.0480882364897,3.9252,7.454014999999999,11.174918,0.0,1.0,1
SrTa2Bi2O9,mp-556569,36,-7.8737775475,7.0520549732110895,-2.774056522351191,476.3398420175485,1.5824,5.701056,15.186439923899279,2.0,1.0,-1
CaBiCO4F,mp-556666,54,-6.7213446803125,5.637363819210527,-2.5306413179612504,405.39057874563207,2.2248,5.409111,13.826329,2.0,1.0,-1
HgSb4C2(OF11)2,mp-556903,14,-4.765920585806452,3.714917710354782,-2.3460276630219363,1038.4656431952535,4.2982,7.775144,14.317702,0.0,1.0,1
CuAs2S4(O2F3)4,mp-556926,14,-5.0033162916666685,2.5678858985698056,-2.1025263545103705,902.2472243447676,0.7370999999999999,7.690460000000002,13.214657,0.0,1.0,-1
Sn3WO6,mp-556980,15,-6.46950700375,5.935831753975785,-1.858523519000001,711.6421731715209,2.1584,7.784458548732211,14.188066999770264,2.0,1.0,-1
Os2O3F7,mp-557132,14,-5.6836664825000005,5.022551180707106,-1.9223734622566664,742.4949440855188,0.6016,5.734113,12.661292967705352,0.0,1.0,-1
CrSbF10,mp-557145,14,-4.652862779166667,3.208127585452819,-2.488316941825,753.0931151430339,1.3280000000000003,5.8196650000000005,12.460700440586875,1.0,1.0,-1
AlTlF4,mp-557233,140,-5.2667749908333334,5.8045871044650745,-3.30187009996,175.8542707048969,4.4124,7.460078668054916,7.460078668054916,2.0,1.0,1
MoF6,mp-557259,62,-4.925128279642856,2.946658353191554,-2.662564874948572,473.2108314786412,4.1687,5.211086,10.077573,0.0,1.0,1
Tl3(MoO3)10,mp-557297,12,-6.781651127906978,5.068089953982903,-1.953712679011628,672.5037314529523,0.0806,10.40179877883763,10.455883535037774,2.0,1.0,-1
CaBi2B2O7,mp-557371,62,-6.925348326875,6.1602534338358605,-2.5200057999652783,637.9405710261286,3.176400000000001,5.5628699999999975,12.76517,2.0,1.0,1
SbC2N(OF3)2,mp-557600,14,-5.917674739583332,2.6290133887857565,-1.955202525585,772.5410397340448,4.6214,5.5967980000000015,15.591409024457828,0.0,1.0,1
Sn2WO5,mp-557633,14,-6.66143457234375,5.760209842549955,-1.9296098818750007,1156.0090394738047,2.4546,8.217191999999999,14.106635,2.0,1.0,-1
OsO2F3,mp-557705,7,-5.8487167425,5.00609048871367,-1.851997444345001,370.47862184579316,0.586,5.237814,12.654615682921236,1.0,1.0,-1
SbCSCl2F9,mp-557900,14,-4.35091118625,2.742710201377568,-2.056523688775357,987.4133368560867,3.8004,8.027716,12.749867329299548,0.0,1.0,1
SbI(OF4)2,mp-557917,14,-4.103644516458333,3.755814389930866,-1.9779156945433327,765.1422307276222,2.2627,5.903375,12.955984070836534,0.0,1.0,-1
TiZn(BiO3)2,mp-557950,107,-6.448102966,7.497487962031001,-2.2071732600833336,138.9192270455325,1.8587,6.201072716774172,6.201072716774172,2.0,1.0,-1
Te4W(OF4)5,mp-558136,2,-4.632552298166667,3.4970666144956284,-2.2718969578349997,1096.1201549293216,3.0555000000000003,9.981444,10.889885365440811,0.0,1.0,1
BF3,mp-558149,14,-5.86927842125,1.8148886085858384,-3.1340178781841663,496.3163445567137,8.1577,4.845534,14.271715,0.0,1.0,1
TeOF2,mp-558387,4,-4.693758215625,4.668174326629967,-2.136241549032501,258.38589047830106,4.2002,5.455771,8.365482,2.0,1.0,1
ReSb(OF4)2,mp-558576,14,-5.5677251652083335,4.2763959803893465,-2.53195346246,764.1081150455052,3.7844,5.762133,12.92396684237951,1.0,1.0,1
PClOF2,mp-558681,62,-5.18088917775,1.930026423463741,-2.430108662842286,828.8675890157582,5.7341,5.849181,13.764070000000002,0.0,1.0,1
Sb2ClO2F11,mp-558692,14,-4.32476742890625,3.1393663336409388,-2.222940187271876,1100.100120386238,1.8625,7.776267999999999,15.076222142832234,0.0,1.0,-1
Sb4OsC6(O3F11)2,mp-558754,14,-5.73108839,3.2701068116243155,-2.1457007139405126,1282.9865212971656,4.434,9.979864,12.779462,0.0,1.0,1
MoF6,mp-558836,229,-4.920038247142856,2.471964422006442,-2.657474842448572,141.02050144652372,4.249700000000002,5.679385937764312,5.679385937764312,0.0,1.0,1
OsOF4,mp-558879,19,-5.484006546041668,5.013798721663771,-1.95813980371,747.7641034499898,0.5956999999999999,5.786123,13.156516,1.0,1.0,-1
SbCSF11,mp-558893,15,-4.587515486428573,2.837365649593662,-2.269313823658215,877.4338357960941,4.4408,9.366709588659882,13.62933753242897,0.0,1.0,1
BaSbSe2F,mp-558946,2,-4.7003360645,5.008399556805891,-1.8082670326755,578.2318259959421,1.45,6.3148,14.273956367551715,2.0,1.0,-1
P2RhClF6,mp-559115,14,-5.1961086913750005,2.7595932093919884,-2.3993055541292856,1512.9810311194865,1.4220999999999997,10.176073,15.109445026731887,0.0,1.0,-1
P2IrClF6,mp-559182,14,-5.311571181000001,3.6354058944423824,-2.3673557887542858,1474.8433087997144,0.8571,10.453574,15.4546668656577,0.0,1.0,-1
VPO5,mp-559299,85,-7.355312544285715,3.019527714956672,-2.4919526478316336,178.08191332758315,1.8871,4.5640540000000005,6.246468,2.0,1.0,-1
SbP(Cl2F3)2,mp-559301,85,-4.03250228625,2.572125614009331,-2.1090863019792856,527.4939025584582,4.5069,6.943412,8.716101,0.0,1.0,1
VTeO4,mp-559505,14,-6.576361579166666,4.665682298751311,-1.9883834333333328,345.28339045784736,2.3675999999999995,4.599645286089787,13.68443000046056,2.0,1.0,-1
Li2TeO3,mp-559554,12,-5.30930448,1.844578711680936,-2.026280635069444,341.15028266856183,4.0144,5.476410425891213,13.681868013460331,2.0,1.0,1
PNF2,mp-559655,62,-6.120779017083334,2.014605533447233,-2.069064437916191,820.7283869543442,5.7734000000000005,7.224634,12.330179,0.0,1.0,1
ScIO,mp-559760,12,-6.804573088333334,4.391847539419622,-2.7705240254166674,284.11597101586375,2.0147000000000004,7.263099555017128,10.255307639694973,2.0,1.0,-1
OsO2F3,mp-559897,14,-5.850769275833334,4.925037105653293,-1.8540499776783343,753.1514850781857,0.5688,5.763579,12.909780069099279,0.0,1.0,-1
KSb4F13,mp-560043,87,-4.716814106111111,4.114466365953663,-2.7116165701927777,312.0190485754498,4.8082,7.82736023254277,7.82736023254277,1.0,1.0,1