pretty_formula,task_id,spacegroup.number,final_energy_per_atom,density,formation_energy_per_atom,volume,band_gap,min_abc,max_abc,Dimension,Dim,is_uv
In5Se5Br,mp-510346,31,-3.51499942,5.616386405143147,-0.5263719128835224,620.1722189986292,0.9157999999999996,4.176192,15.5952,2.0,1.0,-1
Ta4Te16Pd3,mp-510426,12,-5.262667174782608,7.805559975312634,-0.3381640952173914,656.2225352194433,0.0,11.11121089727974,18.107758645359176,2.0,1.0,-1
NbSe3,mp-525,11,-5.8064981683333325,5.7926036520347095,-0.6592383000911456,567.2300753015284,0.0,3.515248,15.843259680927408,2.0,1.0,-1
Tl9SbSe6,mp-532270,75,-3.23867830625,7.9511363988999175,-0.3412191233789064,2034.1053705966879,0.0,11.867133,14.443812,2.0,1.0,-1
PbI2,mp-540789,166,-2.9186919766666666,5.460888411327833,-0.6651345433333334,280.36586623300576,2.4125,15.184869701945455,15.184869710872727,2.0,1.0,-1
Tl2Ge2Se5,mp-540818,15,-3.8448724222222217,5.506312827956479,-0.35054808241319435,1144.5748883071174,1.4048,9.284032097341543,11.337301588306847,2.0,1.0,-1
CrTe3,mp-540922,14,-4.904763020625,5.937552872883343,-0.13402545562500026,972.7858267706987,0.17140000000000022,8.193868,11.673185128440995,2.0,1.0,-1
NbTeI3,mp-540924,13,-4.021820559,5.026952707109515,-0.4584917959999998,794.3969295721472,0.5118,7.469614,13.704938853028604,1.0,1.0,-1
Bi5IO7,mp-540977,12,-5.455272457307691,8.16352389790811,-1.5557461152884626,522.2753922900947,2.4650000000000003,9.705780054513548,13.49334183214792,1.0,1.0,-1
Te7As5I,mp-541032,8,-3.6052660815384616,5.623785441139458,-0.003519070000000222,411.8177279963816,0.5563000000000002,7.725136269634342,14.572316886055427,1.0,1.0,-1
Ta2NiSe5,mp-541070,63,-6.60408401875,7.167216954242418,-0.7321778527148437,377.82742264016633,0.002899999999999903,7.036689119329061,15.786864,2.0,1.0,-1
Ta2NiSe7,mp-541183,12,-5.994398446,7.053359505032987,-0.5976912176406252,458.2831437718049,0.0,7.5491015467055425,18.649523380690077,2.0,1.0,-1
Hg7Cl2O3,mp-541193,57,-2.062259433125,8.568749858782379,-0.6147210235641666,1180.595923815312,0.9253,6.636811,14.860166,2.0,1.0,-1
Ge3(Te3As)2,mp-541312,166,-3.87350975,6.084932588388326,-0.0510437540909091,309.28754639585253,0.5336000000000007,20.58598780494781,20.585988180649114,2.0,1.0,-1
PtF5,mp-541341,14,-3.7195267552083333,5.333644865523804,-1.5239170253666667,722.4816334739328,0.0,5.690914,12.772500789508884,0.0,1.0,-1
GeBr2,mp-541610,14,-3.2042740883333334,3.64196492407744,-0.5719804433333332,847.869747237202,2.5976,7.1012020000000025,13.230401760871553,2.0,1.0,-1
NbSeI3,mp-541817,15,-4.1647179075,4.823098900784123,-0.5308670349687497,760.9881925161824,0.6478000000000002,8.363874635132332,13.842163403341837,1.0,1.0,-1
In3Te4,mp-541885,166,-3.215625104285714,6.283158492725109,-0.2401601171428572,225.92434440144257,0.0,14.07137905928065,14.071379670770733,2.0,1.0,-1
Bi9Rh2I3,mp-541979,11,-4.106675906785714,8.378507602519807,-0.2273214514285716,978.0089619470103,0.5161000000000007,8.14973,13.897374,1.0,1.0,-1
Tl3B3Se10,mp-542058,2,-4.108786675625,5.470423281244893,-0.22864611130859336,871.2953826943883,1.3114000000000003,7.311223,14.862303837551801,0.0,1.0,-1
Hg3Se3O10,mp-542115,4,-4.3940644034375,6.487252922652949,-1.0281000149707031,511.2448660156561,1.8689,5.447457,11.392518241645876,2.0,1.0,-1
HgNO3,mp-542289,4,-5.0337759050000015,5.121947394910904,-0.8351461132259999,681.0676588723621,2.5913,6.374415,12.287518208940526,0.0,1.0,-1
TaSe2,mp-542495,2,-7.09297441051282,7.705956946221972,-0.8097742154086532,949.2842539969536,0.0,9.180104,11.501541716574435,2.0,1.0,-1
Bi14PdBr16,mp-542522,2,-3.2947834367741935,6.216876187460621,-0.5260354758064518,1151.3717542096922,1.1683,11.118817,11.320493169579187,1.0,1.0,-1
AsSe,mp-542570,14,-4.1709627253125,4.101587050305874,-0.0934477839843746,996.7903849778686,1.5425,7.0993119999999985,14.588998000000002,0.0,1.0,-1
Bi3Se4,mp-542615,166,-4.000255954285715,7.2385700343647965,-0.3354346913392859,216.27545308310425,0.0,13.565673236400947,13.565673501152313,2.0,1.0,-1
Tl2SnS3,mp-542623,12,-3.899783715,5.959759926967722,-0.7078091457291661,347.54119938379773,0.9537,7.528170405543767,11.973217876120772,2.0,1.0,-1
Ta2Te3,mp-542634,12,-6.985829271999999,8.876124138395605,-0.356737661999999,278.6343189731227,0.0,7.876589965722285,12.578965926946855,2.0,1.0,-1
Zn2In2S5,mp-542644,160,-3.7704800000000014,4.15267421458475,-0.9496128872916666,208.2450560479026,0.00010000000000021103,15.795565784890453,15.795566306886911,2.0,1.0,-1
Tl2TeO3,mp-543028,50,-4.718724677916667,7.283593505137072,-1.2847907952083333,1065.8042120132118,2.0188,5.44089,17.073864,2.0,1.0,-1
NbI3O,mp-546285,5,-4.964806925,4.634770012578028,-1.1810052542500002,350.8401886374551,0.8325,8.053824574958162,13.211971459089256,1.0,1.0,-1
YCu2Bi2(SeO2)2,mp-550306,139,-5.87702375090909,7.470141539209847,-1.6570748505776514,190.25288099834808,0.0,12.78886231779958,12.78886231779958,2.0,1.0,-1
Tl2(SeO3)3,mp-553909,14,-5.032085789464285,5.3987636112009625,-1.2162265314843748,971.5039632233268,2.1345,4.799869,17.796381805814853,2.0,1.0,-1
Hg3SbAsS3,mp-554950,14,-2.8873331440625,6.762311221567216,-0.37256685148437496,878.7502269122514,1.6692,4.5796220000000005,19.727180904537274,2.0,1.0,-1
Ni5Te4(ClO6)2,mp-555161,15,-4.953762632608695,5.002482088479297,-1.2968246022400007,708.2109458791849,3.1857999999999995,10.276465310516306,16.416610039659986,2.0,1.0,1
TlHgAsS3,mp-555199,64,-3.5026752987500003,5.832000309626862,-0.5454384069791671,656.117787404502,1.5939,6.289707014002004,16.680051000000002,2.0,1.0,-1
Re2(HgO2)5,mp-555759,14,-5.494097332647059,7.771487446427868,-1.4432672807352944,656.1219992419135,1.2963,6.613564,11.849757,0.0,1.0,-1
LiTl3(MoO4)2,mp-556157,186,-5.981544974999999,5.898956459517857,-1.8680812880952369,529.1954402583323,3.8289999999999997,6.143084171835268,16.192449,2.0,1.0,1
InSb2S4Cl,mp-556541,12,-4.13486451,4.241925353843078,-0.8654274282199999,408.72293024780345,1.5677,10.303442531279,11.827680700729283,2.0,1.0,-1
GaS,mp-556742,194,-4.23371759375,3.4166653419521875,-0.9831749090625,197.88060415013402,2.0248,3.623516080523584,17.402523000000002,2.0,1.0,-1
Sb5IO7,mp-556869,14,-5.6057848826923085,5.225534520126911,-1.6143481829807702,1077.5084613301387,2.5763000000000003,6.949383,13.590367738133247,2.0,1.0,-1
HgINO3,mp-557250,62,-4.513742603333333,4.776762654018851,-0.7608823410216671,541.6044021001806,1.9661,5.485165,12.946849,2.0,1.0,-1
Bi14Te13S8,mp-557619,148,-3.942632166,6.884499179313656,-0.42528041271428624,1167.658697112874,0.5462999999999996,12.391698036434276,12.391698348841212,2.0,1.0,-1
TlNO3,mp-557704,144,-5.681663021111111,5.398669166342895,-1.0714387063371116,737.4284280375972,2.8696,7.599719,10.585121520085492,0.0,1.0,-1
TlSbO3,mp-557787,163,-5.5693363960000015,6.5082644718019225,-1.72380627075,381.8385561177497,2.4363,5.413725787712656,15.043768,2.0,1.0,-1
Tl(Cu3S2)2,mp-557929,139,-4.1292412,6.379934701979897,-0.4157091575000006,185.8155206011481,0.0,12.372068819356125,12.372068819356125,2.0,1.0,-1
TaBi4ClO8,mp-558314,123,-6.538310703571428,8.967763902642666,-2.064232875232857,218.55655879400499,1.0814000000000004,3.907064,14.317355,2.0,1.0,-1
PtCI2O,mp-558381,15,-5.062403492,4.679781716375745,-0.5441276702500005,676.8829632623135,1.6101,7.365216933291577,13.73510324233644,0.0,1.0,-1
Cd4Te6Cl6O13,mp-558759,2,-4.440368514310345,4.995751845380892,-1.5000884600279314,1087.550360524855,3.3117,8.015409,14.350409043718926,2.0,1.0,1
Hg3ClO,mp-558934,15,-1.8813959233333333,8.72046839214266,-0.5992844152353333,1492.6280547346093,1.1793,10.937787280762091,17.412772463752006,1.0,1.0,-1
Ag2Bi2S3Cl2,mp-559071,2,-3.730197536388889,5.894385992000152,-0.799991738525371,902.3886100216057,1.8583,7.317419,11.420754444770491,2.0,1.0,-1
AgPbBrO,mp-559470,129,-3.98714014375,5.909104663224649,-0.8801913732291666,230.97725830115803,0.1882999999999999,4.02718,14.241874,2.0,1.0,-1
SeO2,mp-559545,26,-5.14720492,3.75727113647702,-1.15145744828125,392.3090253333554,3.4687,4.684853,16.046872,1.0,1.0,1
Hg3(NO4)2,mp-559722,61,-4.7353563100961535,6.316671199902746,-0.8291017546930769,1593.6507433254758,0.8528,7.1480440000000005,16.025796,2.0,1.0,-1
CrHg3O5,mp-559772,29,-4.370977874027777,8.011323255773423,-1.0621538841666671,1216.7201390121836,1.6543,9.638268,11.819865,2.0,1.0,-1
InSb2S4Br,mp-559864,12,-4.066893678125,4.443736604734177,-0.7495721509375,423.3818454968058,1.5361000000000002,10.513302111653076,12.138976416051724,2.0,1.0,-1
TlRe3(S2Cl)2,mp-560005,2,-6.7021871487499975,6.360010470049295,-1.0926975531519991,1004.8545544987812,1.8316000000000003,6.436357,17.18914167403483,1.0,1.0,-1
TlPb8Br9O4,mp-560133,85,-4.0792506575,6.581582936490973,-1.1802583722727276,1334.730562710401,2.9557,8.405302,12.601439,0.0,1.0,-1
AgHg2NO5,mp-560443,62,-4.359348324444444,6.965862700696539,-0.7348242950329633,575.0278362720093,0.8351,6.506371,13.006129,2.0,1.0,-1
AuSeClO3,mp-560549,2,-4.380166513333333,4.926911402086226,-0.920059779892292,484.4908108876168,1.546,4.4935870000000016,10.903498846164704,2.0,1.0,-1
Y(IO3)3,mp-560995,14,-5.280883964230768,4.937379125584808,-1.4924610275320518,825.482313932322,3.4466,6.152345,16.762781536864487,2.0,1.0,1
Sn2SbS2I3,mp-561134,63,-3.45280249125,5.2902616760081935,-0.4945321751562504,504.7433811528839,0.8162000000000003,7.5523284969845585,16.047895999999998,2.0,1.0,-1
As2Pb4S6ICl,mp-561299,31,-4.203095236071428,5.69183616887654,-0.7899075301435724,778.0080918990958,1.8434,6.799005,11.775915,2.0,1.0,-1
Hg2Mo2O7,mp-561361,15,-5.7152861759090925,6.709219286827749,-1.6283493512500002,698.0083076619667,2.2744,7.316332199597283,14.935757128377025,2.0,1.0,-1
WSBr4,mp-561582,14,-4.441569915,4.105836488860012,-0.6117661655208332,866.3311789423941,1.3225,6.481749,13.654624990341,0.0,1.0,-1
Hg4Se4O9,mp-565679,14,-4.104392438529412,6.485784829786008,-0.9626655803308825,1292.6259491841413,2.253,9.975201,15.29665178494987,2.0,1.0,-1
TlSbSe2,mp-567318,11,-3.701429750625,6.7968262489784275,-0.33081045679687504,473.047855521173,0.8407,4.152431,13.025252131047061,2.0,1.0,-1
HgI2,mp-567471,141,-1.4260681741666668,5.434447139348904,-0.3088329758333335,1110.762029466764,1.5319,14.721972621351087,14.721972621351087,2.0,1.0,-1
PbI2,mp-567503,186,-2.92177061,5.134591412308309,-0.6682131766666668,298.18277383738547,2.4543,4.661863434495695,15.842831,2.0,1.0,-1
TaI4,mp-567537,2,-4.0455407105,5.003483898755189,-0.4547750925000002,914.075366316324,0.5979000000000001,7.6486100000000015,11.269417011299346,0.0,1.0,-1
CdSb2Se3Br2,mp-567556,12,-3.357371444375,5.114825926524519,-0.4895614752539066,488.6787037206649,1.1505999999999998,11.065205425606614,12.773380688919673,2.0,1.0,-1
TlCoCl3,mp-567620,61,-3.75886998,4.876319543464816,-1.1125652389560003,1007.0883926954808,0.0,5.889281,14.016409,1.0,1.0,-1
CrI2,mp-567687,36,-4.529940866666666,4.361270116912747,-0.29624996666666625,232.8685002627801,0.0,4.48004715131995,14.657472,1.0,1.0,-1
InI3,mp-567789,14,-2.329517719375,3.895564780597249,-0.4985873256250002,844.9088246518406,2.3375000000000004,6.6506729999999985,12.91039665273488,0.0,1.0,-1
TlBi(PSe3)2,mp-567864,14,-4.04675497825,5.518028554204875,-0.24138219037053546,1142.4151426233204,1.4116999999999995,7.679053,12.851886385602464,2.0,1.0,-1
AlTlBr4,mp-567878,13,-3.2197563016666666,3.9868652761111902,-1.1106004733333332,917.9394276756219,4.1035,7.633555,13.379012107439694,0.0,1.0,1
B4Rh5,mp-567926,194,-7.416607443333333,9.320035453049957,-0.35670672851851826,198.75490187818656,0.0,3.3358998748727458,20.623444,2.0,1.0,-1
CdI2,mp-568233,166,-1.9020135466666668,5.061527710378949,-0.5783752166666668,240.2920826022224,2.3865000000000003,14.981793951875387,14.981794181382046,2.0,1.0,-1
In5Se5Cl,mp-568603,11,-3.5636944495454546,5.4370373468227315,-0.6098919936344319,613.477775259659,0.9511999999999996,4.177033,15.656103204431586,2.0,1.0,-1
In4Br7,mp-568692,166,-2.803592486818182,4.027320946540157,-0.7612996959090911,839.9753164404992,2.2648,16.50297491627582,16.502975808939787,2.0,1.0,-1
CdBr2,mp-568722,166,-2.2793902000000004,4.644457120818816,-0.88047592,194.65365807536725,2.8560000000000003,13.772497269578563,13.772497290929993,2.0,1.0,-1
HgI2,mp-568742,137,-1.4291586258333335,5.4429752891937575,-0.3119234275000002,1109.0216678950192,1.3792,9.149441,13.248018,2.0,1.0,-1
TcBr3,mp-568753,59,-4.205564408125,4.231081253122884,-0.3877145256250003,530.1566533100395,0.08399999999999996,6.0567410000000015,12.3059,1.0,1.0,-1
CuTeBr,mp-568778,70,-3.253326610833333,5.240968494298675,-0.29351523083333336,687.0319705093498,0.8077000000000001,11.733845346133425,16.308600913335024,2.0,1.0,-1
Y3H2,mp-569037,194,-5.6397048289999985,4.3112947284535705,-0.4639274964480002,207.010834156764,0.0,3.7027467796296833,17.4347,2.0,1.0,-1
Bi2Te5Pb2,mp-569044,164,-3.6911473888888886,7.499267233033942,-0.2553843433333335,325.5773496965312,0.1576000000000004,4.51931919647473,18.406765,2.0,1.0,-1
HfI4,mp-569059,15,-4.124057389,4.81529757861006,-0.9134095270000004,946.4079177187364,2.3138,8.864813560124375,13.293772546351356,1.0,1.0,-1
AgBi(PSe3)2,mp-569126,148,-4.036609748,4.996191648875751,-0.18414665778720266,566.7127483749093,1.3564999999999996,14.861635384210784,14.861635414442716,2.0,1.0,-1
SbI3,mp-569224,14,-2.48806794375,4.300067422733588,-0.31280817250000004,776.1522275874446,2.2167000000000003,7.912282,11.715895,0.0,1.0,-1
CdHgAsBr,mp-569454,51,-2.251310735,5.723379749222309,-0.3706569675,542.9269974966863,1.9725,4.804863,11.064237,2.0,1.0,-1
PbI2,mp-569595,166,-2.9195831033333337,5.340062470782126,-0.6660256700000003,286.70951289816423,2.4295,15.38236497546671,15.382365178869732,2.0,1.0,-1
CuBi(PSe3)2,mp-569715,163,-4.135873188,4.8100006276592335,-0.15674503112053556,558.0473308198067,0.6922000000000001,6.612340503628425,14.73771,2.0,1.0,-1
TeI,mp-569766,12,-2.4155252875,4.922312321961768,-0.08186851500000003,343.42771235685933,0.7345000000000002,8.483640561598541,12.497183519860544,1.0,1.0,-1
NbI4,mp-570044,36,-3.703192378,4.854423341760835,-0.4637212779999999,821.6786414918198,0.4884,8.061977490348445,14.897429,1.0,1.0,-1
Hg2TeBr3,mp-570125,14,-1.8405730604166664,6.148940534398734,-0.39699951375,830.1338945990311,1.9471,7.857817,12.3206376833474,2.0,1.0,-1
HgIBr,mp-570172,36,-1.538664935,5.100486127305493,-0.3837917616666666,265.2692540369492,2.6189999999999998,4.5388408560115865,13.65551,0.0,1.0,-1
ZrI3,mp-570188,59,-4.24258390375,4.111605829836228,-0.9626492850000004,762.3984776052682,0.19700000000000006,6.660409,14.087711,1.0,1.0,-1
MnTlCl3,mp-570300,62,-4.4875546800000015,4.618655739736184,-1.430572203887035,525.890244242322,1.9565,3.866394,14.808792,1.0,1.0,-1
TlGaI4,mp-570306,14,-2.5130983816666665,4.628862767254215,-0.5987985579166665,1121.729984633662,2.5565999999999995,8.123381,16.48539445996516,0.0,1.0,-1
InSb2Se4Br,mp-570321,12,-3.73570257375,5.329025714305604,-0.4069202411718749,469.948049625062,1.1209000000000002,10.852155489484103,12.436728287102039,2.0,1.0,-1
AgAuCl4,mp-570340,15,-2.6169728966666668,4.331657030232633,-0.7633326549511112,342.4437362970696,0.8857999999999999,6.970062023540393,13.206997967200346,2.0,1.0,-1
Tl3AsS4,mp-5704,62,-3.832271481875,5.615474924736262,-0.6277668803125,965.5819785250619,1.7009000000000003,9.278871,11.135044,1.0,1.0,-1
ZrI2,mp-570506,31,-4.75792829,5.3553603770736125,-0.8926863366666667,427.93809252249224,0.2976000000000001,3.776409,16.364335999999998,2.0,1.0,-1
ZrHg3(SeCl3)2,mp-570520,14,-3.314125750416667,4.987771570208067,-1.3163198720206253,708.2130621359686,2.5952,6.785931,13.503685879169025,2.0,1.0,-1
Nb(Te2I3)2,mp-570873,2,-3.1709003068181816,4.497383607444868,-0.278301720454545,1007.7827429862227,0.8167,8.324703999999999,12.347920849615376,0.0,1.0,-1
Bi2Pb2Se5,mp-570930,164,-4.089224136666667,7.619754526999864,-0.4575663424131946,267.42967141258214,0.4120999999999997,4.277831839679653,16.874523999999994,2.0,1.0,-1
InBi2Se4Br,mp-571169,12,-3.74317497375,6.4412845798976175,-0.4741343736718751,478.7394081114564,1.3432000000000004,10.832164149377027,12.349300656437919,2.0,1.0,-1
YGaI,mp-571210,164,-4.7318865400000005,5.048622771821245,-1.059026796388889,187.82913840281142,0.0,4.208972280750373,12.242785,2.0,1.0,-1
ZrI2,mp-571279,11,-4.757812388333334,5.390175004369667,-0.8925704350000002,425.17408111564947,0.2466,3.775334,16.32497483166513,2.0,1.0,-1
HfHg3(SeCl3)2,mp-571445,14,-3.4577587808333337,5.43471806371026,-1.3424955507706249,703.2972339202075,2.5702,6.754917,13.479364169396307,2.0,1.0,-1
ReI3,mp-573815,11,-4.319555624583333,5.676465752308041,-0.06541436708333315,995.048887320552,0.9580000000000002,9.424537,11.455287,1.0,1.0,-1
Tl10Hg3Cl16,mp-573974,87,-2.7500428851724137,5.8380259169521285,-1.2124847292124137,913.8473649411557,2.6482,13.663933574790056,13.663933574790056,2.0,1.0,-1
TiGeTe6,mp-574169,12,-4.224943801875,5.812934873674097,-0.3026531204166667,506.2555568449746,0.4316000000000004,7.727403393319647,17.82728716744881,1.0,1.0,-1
SbPb2S2I3,mp-578882,14,-3.54563943375,5.941181299600147,-0.6616003139062498,1096.7478719307567,1.7237999999999998,7.804178,16.748202,2.0,1.0,-1
AgI,mp-580941,186,-2.4119611975,5.286907458662271,-0.23367688833333355,294.9544272171785,1.3759,4.84863381150701,14.487235,2.0,1.0,-1
Co5Te4(BrO6)2,mp-581171,15,-5.359558885,5.069825748861235,-1.3175314328260874,757.8258385588675,2.2494000000000005,10.740649347015896,16.558061765603153,2.0,1.0,-1
Hg2NO4,mp-5824,14,-4.4540306492857145,6.796137549321491,-0.8051028217685712,468.3273370950623,1.6237,5.669043,12.21003930085182,1.0,1.0,-1
In2Te5,mp-582549,9,-3.2500671428571435,5.45818505410034,-0.2186568414285713,527.9203468948825,0.9209000000000004,8.861659320815372,14.047816327897372,2.0,1.0,-1
TlNO3,mp-5915,62,-5.686027582,5.403459111638616,-1.075803267226,654.9108692666475,2.7867,6.406367,12.496997,0.0,1.0,-1
Te2Mo,mp-602,194,-5.984859553333332,6.928353178987021,-0.27411125666666675,168.31754178304604,1.1197,3.5587106367870085,15.346645,2.0,1.0,-1
ZrTe5,mp-605,63,-4.544733089166667,5.4449279162561,-0.5006988758333334,444.7827258418251,0.0777000000000001,8.184967740000507,13.839632,1.0,1.0,-1
PbCN2,mp-619032,33,-7.283378060625,6.20194646829572,-0.07228502431499972,264.77189272988755,1.8563000000000005,3.904752,12.106439,2.0,1.0,-1
TaNi2TeSe,mp-622009,62,-6.477315892999999,8.875178073232119,-0.4658632134687501,377.861642320009,0.0,3.514481,16.553136,2.0,1.0,-1
Te6MoBr3,mp-622262,2,-3.73624591675,5.064017097547372,-0.27462309375000016,1444.4437551816752,1.0895,8.635533,14.645100943710835,2.0,1.0,-1
Re3(TeBr)7,mp-623087,148,-4.456317400294118,5.7816424292079285,-0.29189540941176434,1155.239717483199,1.1555,13.32806866388383,13.328068733945965,2.0,1.0,-1
GePbS3,mp-624190,14,-4.580331441499999,4.625705275063893,-0.8294025363750009,539.9572785365629,1.8211000000000004,6.959606,10.665164,2.0,1.0,-1
Nb4Co2PdSe12,mp-624253,12,-6.055167928947368,6.047231881485849,-0.6997639662171053,423.8185393615706,0.0,6.9166812748818325,19.373951283517076,2.0,1.0,-1
Fe3Pb4ClO8,mp-630866,123,-5.83826667125,7.810750962803072,-1.6332184433287509,246.56596037408661,1.2797999999999998,3.976381,15.593986,2.0,1.0,-1
Ga2I3,mp-636675,14,-2.556860431,4.400761114738107,-0.4312146610000003,785.0869416855487,2.2526,7.7551070000000015,13.705913503262012,0.0,1.0,-1
Hg12SbBr(ClO3)2,mp-642625,143,-2.3810915089393943,7.78333876648646,-0.6814648304857573,1776.5136866893436,0.0,9.941163,14.364825794801169,2.0,1.0,-1
Tl8(CdN14)3,mp-647556,2,-6.640661796981133,4.68431203263961,0.07001225962339701,907.6988086956944,2.6689,8.710374,11.85925809087141,1.0,1.0,-1
Ta(CoTe)2,mp-653697,62,-6.791805684500001,9.434344360227957,-0.3196026685000007,780.096467682171,0.0,6.550938,18.11023,2.0,1.0,-1
Nb6SI9,mp-654051,2,-5.4671839615625,5.300553565613766,-0.6048756089453127,1084.966565165308,0.0,10.356100634247381,11.996489454582159,1.0,1.0,-1
Re(TeBr2)2,mp-662556,82,-3.975501041071429,5.034998599502369,-0.3642388689285713,1003.939442768488,1.9379,11.056561042597012,11.056561042597012,0.0,1.0,-1
Re2(HgO2)5,mp-667343,14,-5.49365386,7.579145888825664,-1.4428238080882352,1345.5457792286265,1.1042999999999998,8.883351,12.40367459550677,2.0,1.0,-1