pretty_formula,task_id,spacegroup.number,final_energy_per_atom,density,formation_energy_per_atom,volume,band_gap,min_abc,max_abc,Dimension,Dim,is_uv
SBr,mp-28099,41,-2.93173446375,2.434063666298411,-0.3767762603124996,305.54484062594094,2.3074,4.753653857819372,14.258095,0.0,1.0,-1
AlSbI6,mp-28118,12,-2.639826258125,3.5227783216224737,-0.512494663125,858.0557609099919,2.3121,8.078589323898077,10.984077057012756,0.0,1.0,-1
Co(ClO4)2,mp-28137,148,-4.494772037727271,2.6305908536089886,-0.7031953560472725,651.023453568679,3.1799,8.289112337622527,9.830832338003683,2.0,1.0,1
Pd(SCl3)2,mp-28174,2,-3.0186202255555554,2.3763908238441642,-0.8354016250900003,267.81431765845934,1.6204,4.755114,8.414183290794776,0.0,1.0,-1
Pd(SeCl3)2,mp-28175,15,-2.9640680877777776,2.696789123318644,-0.7757557960274997,587.493800819859,1.7183,7.709046741196087,9.860330954291747,0.0,1.0,-1
FeSeCl7,mp-28189,1,-3.29717971,2.2593100799389814,-0.9924162439070838,562.9564664159574,1.3313,6.61185,10.361000801944424,0.0,1.0,-1
V2Se9,mp-28256,15,-4.921362177727274,4.391785606548755,-0.4094516832812506,614.4317163384071,0.7658,8.525515150111692,8.637937863553603,1.0,1.0,-1
SiH3F,mp-28289,14,-4.2492829165,1.092025319258814,-0.9362680889100006,304.7762004948863,6.0106,4.865885,8.650176743792754,0.0,1.0,1
MnBr2,mp-28306,164,-4.958327706666666,3.8257757157706376,-0.8131411898850575,93.20833828558914,1.6107,3.8979627664442873,7.0835149999999985,2.0,1.0,-1
GeH3Cl,mp-28369,36,-3.505762826,1.9276906349691385,-0.3865450628239998,191.43509567271846,4.7582,4.814917391823042,8.583061,0.0,1.0,1
GaBr2,mp-28384,52,-2.8784187179166665,3.4388226506831163,-0.7777691904166666,886.6876398410386,3.1066000000000003,7.857659,10.737248,1.0,1.0,1
Br2O,mp-28460,33,-2.5776539958333333,3.6414358120656787,-0.07114781291666716,320.68125977128426,1.4541000000000002,4.347932,10.40958,0.0,1.0,-1
Ti(ClO4)4,mp-28481,15,-4.744489909285714,2.2268552892579128,-0.8948926033987299,664.6605669062583,2.9099,7.649192673223037,13.400360676630466,0.0,1.0,-1
WBr6,mp-28483,148,-3.7310549285714285,4.176017946249249,-0.4768141128571429,263.73827834207447,1.1328,7.445155928093983,7.445156028408338,0.0,1.0,-1
SiH3I,mp-28538,14,-3.5256356515,2.2558150778664583,-0.19192832767200016,465.265214211963,4.2096,4.902214,11.041868030017607,0.0,1.0,1
CsB3H8,mp-28582,63,-4.244404242916667,1.9284529869889293,-0.34011499494925285,298.62356044781126,6.0171,5.755526741216048,9.121367,1.0,1.0,1
Pt(SCl4)2,mp-28721,14,-2.9597103068181814,2.773199000932002,-0.8644652833936362,650.0822375401633,1.9064,6.7649399999999975,13.044227365773187,0.0,1.0,-1
Pt(SCl3)2,mp-28722,2,-3.1126376922222216,2.8596984000515864,-0.8304162139788889,274.0364238286578,1.8451,4.894851,8.399101992277505,0.0,1.0,-1
SbSCl9,mp-28772,166,-2.718056377272727,2.2543563933286697,-1.0010882047695453,696.6708972876994,1.6343,9.086214601185743,9.086214849752619,0.0,1.0,-1
P4N3Cl11,mp-28792,146,-4.306326393333333,1.7984123288543123,-1.0117196848492067,513.2808405470886,2.6579,8.032381696740513,8.03238204550761,0.0,1.0,-1
Si3PH9,mp-28842,14,-4.0286392148076935,0.9755202888409528,-0.11734245528087905,846.3498618645546,4.2571,6.360305,13.157292000000002,0.0,1.0,1
Os(SCl6)2,mp-28865,166,-3.04097304,1.975858255682776,-0.8263379796913332,571.3101190694152,0.05410000000000004,8.446281662281281,8.446282471315117,0.0,1.0,-1
PSe,mp-28885,14,-4.5316190121875,2.7654143913790232,-0.07702034264508928,1056.1848935675791,2.2456,7.439375,12.779191500430885,1.0,1.0,-1
Br2O3,mp-28933,14,-3.4100503535000004,3.132782510631676,-0.2078804562500004,881.1854949027147,1.7938,8.242364,12.000899605576114,1.0,1.0,-1
P3BrCl14,mp-29033,79,-2.990701756111111,2.1332478191249367,-1.0223296561863495,520.8857642003842,1.6019999999999999,9.019977268990926,9.019977268990926,0.0,1.0,-1
Li2Ga,mp-29210,63,-2.5809982183333333,2.9811365329437463,-0.2990178063888891,93.13855110554421,0.0,4.3806129999999985,5.210475742485901,2.0,1.0,-1
PI2,mp-29443,2,-2.881897411666667,3.3323309636323595,-0.06146038119047624,283.8210293778478,2.0584,5.204303,7.739943935549986,0.0,1.0,-1
C2S7Cl6,mp-29477,2,-3.937494501666667,1.6204174049835371,-0.5849880797623338,945.2272187917256,2.8818,6.202286,13.426465346839207,0.0,1.0,-1
PdCl2,mp-29487,148,-3.439817745,3.408206016163632,-0.8772898238400002,518.3784356827584,1.4306,8.622401114920715,8.622401355620719,0.0,1.0,-1
Pd(SeBr3)2,mp-29496,2,-2.6762601911111106,3.713193693003347,-0.2325641905208333,332.6110298683977,1.4073,5.041842,9.368149742494833,0.0,1.0,-1
ClF,mp-29504,14,-2.2288974375,2.0909804552380304,-0.8916968822250002,172.9689668179998,2.0897,3.739401,7.3386580523113345,0.0,1.0,-1
BrNO3,mp-29526,19,-5.0869483655000005,2.5879157189181594,-0.6216693387260002,364.22402882075437,2.5676,4.315049,11.580252,1.0,1.0,-1
Cl2O,mp-29537,141,-2.649203185833333,1.8770086287350525,-0.39808071175666654,307.5314829975021,1.1474,7.440050542022682,7.440050542022682,0.0,1.0,-1
Si(PH2)4,mp-29549,14,-4.2037975686538465,1.100600915971155,-0.12715520274967018,965.8702748110452,3.9322,7.6201789999999985,11.401647182322387,0.0,1.0,1
RuS3Cl8,mp-29568,2,-3.3523734283333333,2.3319006362372607,-0.8753595058712502,684.8790714228013,1.8975,8.183145,11.213271518544977,0.0,1.0,-1
TeWBr9,mp-29715,11,-3.2311449577272726,3.9133840719418536,-0.4280752977272729,874.594303876335,0.0,7.112906,12.171273,0.0,1.0,-1
B3H5,mp-29721,36,-4.659732446875,0.7625551821344527,-0.13012511944999972,326.4019902497255,3.8757,6.12233820118376,8.898042,0.0,1.0,1
B5H9,mp-29783,76,-4.615303121607143,0.7269417763217906,-0.14711820685095234,1153.588431761946,5.9612,10.382752,10.540694,0.0,1.0,1
SiH,mp-29803,164,-4.3734163975,1.2770575171443816,-0.0408910568099996,75.65954242971058,2.1403,3.889188339400909,5.7758400000000005,0.0,1.0,-1
Sc2C,mp-29941,164,-7.720535099999997,3.1182969785364856,-0.4232954633333333,54.27524512046594,0.0,3.3251416161856926,5.6682739999999985,2.0,1.0,-1
NOF,mp-29966,19,-5.513960791666666,1.639205503006357,-0.9743981949400004,198.56910400479333,0.014600000000000168,4.221279,10.504636,0.0,1.0,-1
P2Pd3S8,mp-3006,164,-4.9000240815384615,3.0720737560524936,-0.7346289978571434,344.708998396194,1.6807,7.247051883479033,7.578778999999999,2.0,1.0,-1
AsCl5,mp-30106,59,-2.756089369166667,1.977334704240596,-0.9346938210500004,423.56582370697447,1.4571999999999998,6.789455,8.063464,0.0,1.0,-1
Be(N3O7)2,mp-30141,43,-6.262736927142857,1.925063385362949,-0.982091091275238,546.9574892383799,1.141,7.5879894974393585,14.260832378971608,0.0,1.0,-1
GaBH6,mp-30150,15,-3.7169249316666666,1.591868367804296,-0.07368652646499996,541.8998150026906,4.8964,8.409711701497978,10.371348833153187,1.0,1.0,1
H34C19,mp-30168,4,-5.63340921490566,0.9247965891529348,-0.2473737472279243,942.5793894137787,5.4526,7.7652009999999985,11.346379619602455,0.0,1.0,1
Ca3Zn,mp-30485,63,-1.93854357,2.2476893502237187,-0.11940775749999988,274.29720562598305,0.0,6.923153647886922,10.145005,2.0,1.0,-1
B5H11,mp-30529,14,-4.4554026321875,0.6585333550016433,-0.1407737491033334,657.0443221329002,4.747199999999999,7.007060000000001,12.211032040634608,0.0,1.0,1
Li5Sn2,mp-30766,166,-2.905859408571428,3.555816317286529,-0.3967511166666665,127.08029694946491,0.0,7.138199145698586,7.138199611875813,2.0,1.0,-1
Li7Sn3,mp-30768,11,-2.9327815235,3.6537812760008177,-0.3936639603333333,367.8645976054325,0.0,4.743201999999998,9.461568104327792,2.0,1.0,-1
AlI3,mp-30930,14,-2.75032973625,3.204476225941659,-0.6709263174999998,845.0596499049881,3.2679,6.74074,12.944380744005485,0.0,1.0,1
PAuS4,mp-30938,2,-4.3758120225,2.964705542197012,-0.6126242110119046,399.0174111679421,1.4047,6.4057559999999985,8.659108616182614,1.0,1.0,-1
MgPSe3,mp-30943,148,-4.105179354,3.592766365398296,-0.6049192851205355,270.0654529739835,2.2957,8.35469115240342,8.35469126420516,2.0,1.0,-1
Ga2PdBr8,mp-30945,12,-2.92486943,3.257315863365273,-0.7129162359090906,451.2119390383821,1.6181,7.762540265898785,7.9915806588666785,0.0,1.0,-1
Ga2PdI8,mp-30946,12,-2.5668324381818186,3.8520539418603854,-0.4369984622727272,543.6343236737353,1.4331,8.099230662398742,8.629537712817992,0.0,1.0,-1
GaBr3,mp-30953,14,-2.821770058125,3.0904309456897403,-0.8370512775000001,665.057935418378,3.3614,6.2369059999999985,11.803040907382176,0.0,1.0,1
GaI3,mp-30954,14,-2.399875503125,3.6452208434954034,-0.4998421662500001,820.7648183058546,2.3854,6.693523,12.711648366309069,0.0,1.0,-1
GaPS4,mp-30979,14,-4.58026437,2.343968520386957,-0.8580408980952381,648.7999212557239,2.3828,8.206917,12.083895877720401,2.0,1.0,-1
CuCl2,mp-30999,12,-3.106160313333333,2.9526222503437722,-0.9038574388400002,75.61509046966941,0.0,4.100698565843264,6.993124007052928,1.0,1.0,-1
CuSe2Cl,mp-31038,14,-3.521073934375,4.0399382345288215,-0.4348537838618745,422.406494045385,0.8538000000000001,4.961405,12.059664524302821,2.0,1.0,-1
Cl2O7,mp-31050,15,-4.0274426877777785,2.033645113268169,-0.4466248839188888,298.69084066823615,3.676,7.573421650982138,9.192184977915641,0.0,1.0,1
As8S9,mp-31070,13,-4.512489710882353,2.860732679237929,-0.4813217084191183,1030.846836611786,1.722,9.640533,10.643444178907737,0.0,1.0,-1
Li2In,mp-31324,63,-2.475788806666667,3.818917214130725,-0.2859456522222222,111.92249838810172,0.0,4.73428,5.541817036775213,2.0,1.0,-1
HBr,mp-32684,19,-2.743746775,2.4359291597374693,-0.30541517430999976,220.62618165607984,4.9181,5.847569,6.2541720000000005,0.0,1.0,1
CuCl4,mp-32829,121,-2.266004838,2.752248397423521,-0.4430827226079998,123.90051056367943,0.0,6.263859883061483,6.263859883061483,0.0,1.0,-1
H2S,mp-33024,1,-3.7785659766666666,1.112065496925855,-0.4610782467883332,203.55863146747663,4.1036,5.459285,6.165207429435037,0.0,1.0,1
ZnPS3,mp-3342,12,-4.221988603,2.8294605894668834,-0.8035887885892862,226.03806418074143,2.0946,6.010460420599074,7.49258834648381,2.0,1.0,-1
BrO2F,mp-36262,9,-3.5417968825,2.931426787457507,-0.6545949796724999,148.30086339428715,2.8995,5.4007575115304896,6.699002892456236,0.0,1.0,-1
Sn(PS3)2,mp-36381,146,-4.672960352222223,2.7403623167805216,-0.7091733767658737,226.05039614913602,1.3748,7.800925538323897,7.800926140051898,2.0,1.0,-1
C,mp-48,194,-9.2202971575,1.7417339509645842,0.0064835425000016045,45.803175751767064,0.0,2.4677242827325747,8.685038,2.0,1.0,-1
As4S5,mp-502,11,-4.496219476111111,2.761823928284377,-0.4960613700694441,553.1611866769994,2.0069,8.093877,8.477349,0.0,1.0,-1
SnGeS3,mp-5045,14,-4.5920148975,3.41448477585509,-0.7817010353749992,559.3578384439235,1.6936999999999998,6.919302,10.640132,2.0,1.0,-1
N2O5,mp-504769,194,-6.034199144285713,2.0109923489308703,-0.7294460415728565,178.37510808476787,0.6851,5.5366898329616605,6.718978,0.0,1.0,-1
SeCl,mp-504825,14,-2.865246998125,2.565799980818707,-0.4903657709268749,592.3680961796057,2.2181,5.2562120000000006,15.067789,0.0,1.0,-1
CsMnAs,mp-505016,129,-5.14882013,3.959072432964714,-0.2434110475287365,220.42118002607072,0.0,4.297237,11.936437,2.0,1.0,-1
NClO,mp-505727,62,-5.0140880025,1.6209155132195845,-0.5300917914633333,268.23703500393583,1.9908,4.235032,11.527286,0.0,1.0,-1
Cs3O,mp-510262,193,-2.664970715,2.7167970109746684,-0.9320025687607756,506.95853322315986,0.0,7.525606,8.819625854613617,1.0,1.0,-1
CdPS3,mp-5328,12,-4.1544576110000015,3.165744225619315,-0.8034285665892853,251.33524758457213,2.1211,6.299474376189573,7.593021834207116,2.0,1.0,-1
Ge2S3Br2,mp-540792,2,-4.005075475,2.775149700032609,-0.7280928477678579,960.4470681413948,2.4625,9.432973,10.737259966419225,0.0,1.0,-1
SeBr,mp-540943,14,-2.65674817875,3.3964783277778463,-0.0903291699218749,621.349180694308,1.8382,5.318246,15.241087,0.0,1.0,-1
FeTeBr7,mp-540998,1,-2.994001760555556,3.6235113647914488,-0.4304695838888889,680.7780961308894,1.0711,7.05362,10.925805436307842,2.0,1.0,-1
TeAuBr8,mp-541134,2,-2.2103402095,4.072531072981299,-0.25908073049999986,785.960940494965,0.8237,8.288705,10.883043011772212,0.0,1.0,-1
GePdS3,mp-541785,12,-4.792431533999999,3.8634438666035966,-0.7480556808749995,236.61359996867282,1.3728,7.757202508462055,9.397199990535745,1.0,1.0,-1
P2S5,mp-541788,2,-4.661245057142857,1.7211012527759617,-0.6338849061096938,857.8047548067908,2.5773,9.678889,9.824867245824088,0.0,1.0,-1
GaN5O14,mp-541950,5,-6.103107209,2.1770920531580487,-0.9916185588450006,277.44253146087533,1.2568,7.324114859557023,9.170756568642524,0.0,1.0,-1
AsS,mp-542846,15,-4.527797471875,2.8885297460904886,-0.4617433359375003,492.0300485550679,2.0502,7.27688702926217,9.547937252743392,0.0,1.0,-1
H3CS,mp-554676,14,-4.839018214499999,1.1970270544677708,-0.3552221042969997,522.6989160266388,3.7617,6.6531949999999975,9.005909245127057,0.0,1.0,1
CuP4S3I,mp-554724,64,-4.590593024444448,2.762720303091585,-0.4022227654067471,987.0250966749437,1.7068000000000003,10.909665,11.794791659860124,1.0,1.0,-1
SbS2NCl6,mp-555056,71,-3.5294385839999998,2.3452087549539042,-0.8743826818190001,292.1543028338669,1.7839,7.351387884465151,7.351387884465151,0.0,1.0,-1
Re2S2NCl11,mp-555493,15,-4.2364818671875,2.9336135643844723,-0.8877401774681251,951.5493537313916,0.2345,9.148056905187245,11.950947404853222,0.0,1.0,-1
S,mp-555760,154,-4.0955079266666665,1.7637297508524017,0.04094194020833283,271.700733234875,2.3159,4.403378,8.44086789781667,1.0,1.0,-1
H8C3S2,mp-555848,14,-4.9721679244230765,1.1599225284657635,-0.3149206071315377,619.7409416806947,3.965,7.249308,11.084297,0.0,1.0,1
NaCSN,mp-556012,62,-6.060603866875,1.5732016298505267,-0.5688801240845827,342.29179972624166,4.0391,4.1169730000000015,14.350435999999998,2.0,1.0,1
AuCS2Cl3,mp-556112,15,-3.860705048928572,3.010880326640703,-0.5452486340757149,837.1220317939102,2.0005,9.433068909927034,11.619990376429234,0.0,1.0,-1
AsS,mp-556328,14,-4.5083744740625,3.0122228796374713,-0.4423203381250005,943.6509103155806,2.1105,8.958155999999997,10.482698308046933,0.0,1.0,-1
AgBi(PS3)2,mp-556434,2,-4.492962772,3.973504640567397,-0.6542526482559531,477.4006621350738,1.1837999999999995,6.500439,9.929399863625497,2.0,1.0,-1
TlBi(PS3)2,mp-556592,4,-4.530025054499999,4.306583072939824,-0.7384052330892856,514.906573722155,2.0483,6.774259,10.022603512106274,2.0,1.0,-1
S,mp-557031,15,-4.0924682415625,1.6708719307177318,0.04398162531250005,1019.7346033127935,2.0748999999999995,9.659668408576351,11.854702831288725,0.0,1.0,-1
As4S3,mp-557321,62,-4.542910349642857,2.840778334088493,-0.3921327466964283,925.6287582202086,2.4852,7.076803999999999,12.124244,0.0,1.0,-1
S,mp-557376,15,-4.10465786,1.6593842329137614,0.03179200687500057,641.7463070266036,2.1919,8.605803020392694,9.18514236140306,0.0,1.0,-1
BiS4N3Cl4,mp-557484,2,-4.540079412916667,2.668926526866083,-0.6521782256399996,648.3964500865736,2.0533,7.624055999999999,9.908760122985724,1.0,1.0,-1
LiNi(PS3)2,mp-557500,5,-4.7214470980000005,2.6379844631762714,-0.7860900509226199,201.41357442925263,0.0,5.895839254841674,6.963700414548647,2.0,1.0,-1
S,mp-557559,14,-4.095903338214286,1.6690221055123624,0.04054652866071403,893.2567039411025,2.5163,8.202969,10.504510744098127,0.0,1.0,-1
CrAg(PS3)2,mp-557592,13,-5.073913231000001,3.025844644643172,-0.6589017912559527,454.6157460044266,0.0,5.969653,10.679795,2.0,1.0,-1
NO2,mp-557865,204,-6.2861940405555545,1.4132112244105155,-0.8049263321822219,324.34187632637315,2.8748,7.4967835488761425,7.4967835488761425,0.0,1.0,-1
GaN5O14,mp-557954,82,-6.1010781845,2.130951289389539,-0.9895895343450009,283.4499002671048,1.1667999999999998,7.420060479046246,7.420060479046246,0.0,1.0,-1
S,mp-558014,58,-4.122346687499999,1.4910137907510814,0.014103179375000016,857.0574276506027,2.4783,5.663469,15.710459,0.0,1.0,-1
MoS2N2Cl5,mp-558183,2,-4.8266745985,2.208546591148091,-0.8300923962310002,549.3887188537228,0.5425,7.347696000000001,10.20051715184132,0.0,1.0,-1
CuAs4S3Cl,mp-558199,57,-4.328998370833333,3.47281167947748,-0.5058316077927785,946.5163254902184,1.6216999999999997,7.514071,11.254812,1.0,1.0,-1
C2S(NCl)3,mp-558545,14,-5.779529369444441,1.6786640079214663,-0.2744715072272217,809.0313461651018,3.1612,7.765921,12.57591833134857,0.0,1.0,1
PBr3O,mp-558645,62,-3.8520349080000003,2.6459033059171,-0.9380887179642862,719.6814944082696,3.3311,6.502524,10.625222,0.0,1.0,1
AlSBr3N,mp-558847,14,-4.137931925416667,2.6846450420521317,-0.7909623413341667,773.821327191582,1.8892,7.552753,10.842196,0.0,1.0,-1
H3CS,mp-559204,14,-4.840215672499999,1.1387407724565155,-0.3564195622969997,549.4531845690603,3.6318,5.3685410000000005,15.292967,0.0,1.0,1
PH3CS3,mp-559616,14,-4.8212660359375,1.5607535660327705,-0.4739852676633038,605.1797293276948,2.1833,8.440061,8.906537661527345,0.0,1.0,-1
AuN5O14,mp-560745,14,-5.9171276505,2.864751812110632,-0.7933496984699999,569.2017328013825,1.9354,7.950316,9.628926701024367,0.0,1.0,-1
Cu2As4S3Cl2,mp-560845,11,-4.166822596818182,3.8021141195020673,-0.552135459172273,518.7429485562719,1.5025999999999995,6.271619,11.99361662688282,2.0,1.0,-1
F2,mp-561203,15,-1.9114789675,1.653847564795886,0.0,76.30108454526636,2.9340000000000006,3.5569830317690583,6.887938044646453,0.0,1.0,-1
F2,mp-561367,12,-1.90213894,1.971817735041903,0.0,63.996971233140926,2.456,3.20314633925848,7.254754301626487,0.0,1.0,-1
S,mp-561513,2,-4.117498591071429,1.5839867992460366,0.018951275803571224,941.2106120356874,2.4271,6.059369,15.544435308717615,0.0,1.0,-1
Cr(B3H8)2,mp-567148,2,-4.536378038695653,1.0573964512931455,-0.12050044403999965,208.8466082267135,1.0282,4.475192024334262,8.989252938415182,1.0,1.0,-1
GeBr4,mp-567604,14,-2.8679537785000004,2.9352537907664003,-0.6338069755,887.6321552259086,3.0755,7.223591000000001,11.397076395510954,0.0,1.0,1
CrBr2,mp-567624,12,-4.957866226666667,3.9664918496390764,-0.6488993766666665,88.6700378693722,0.0,4.168369985088416,6.5066707490332565,2.0,1.0,-1
PC2N3Cl4,mp-567741,63,-5.7959266785,1.7487794230349305,-0.5219599053751424,453.55291067167633,3.7519,7.604337377047128,9.078725,0.0,1.0,1
ICl,mp-567998,14,-1.843811709375,2.9964977947509865,-0.4548799135049999,719.7760590022173,1.8619,5.3907120000000015,12.524187708013999,0.0,1.0,-1
ICl,mp-568024,14,-1.83472912,3.063118790771765,-0.44579732413,704.1213615392578,1.5271,8.485485,9.344245888014932,0.0,1.0,-1
AlGe2P(H3C)8,mp-568107,2,-4.978659638888889,1.3093864494517402,-0.25719178126253994,820.5421998128386,3.8443,9.433131,10.045506043027848,0.0,1.0,1
InBr2,mp-568108,52,-2.8074080670833332,3.9196710646888167,-0.7988957970833331,930.7458593907204,2.4203,8.06913,10.7792,0.0,1.0,-1
Pd(Se3Br)2,mp-568146,2,-3.4092720577777778,4.431126794174856,-0.13936052934027762,277.3062112396669,1.1012,4.845219,8.19998800061494,1.0,1.0,-1
SiSe2,mp-568264,72,-4.590022188333333,2.8885335892352537,-0.4509765298958334,213.8589632494045,2.1817,7.0382467962688695,7.0382467962688695,1.0,1.0,-1
C,mp-568286,67,-9.2204766625,1.8843504024722024,0.006304037500001414,42.336577190837694,0.0411999999999999,2.467763697440458,8.028328,2.0,1.0,-1
C,mp-568363,67,-9.22041158,1.8556039302537173,0.00636912000000045,42.99244303602145,0.06050000000000023,2.4687096661474794,8.149903,2.0,1.0,-1
BPBr2NCl3,mp-568514,64,-4.2942125046875,2.3632392768316093,-0.9091430259247616,904.901351656988,2.9132,9.305259157415714,10.491923,0.0,1.0,-1
WSe6ICl6,mp-568572,2,-3.728519597142857,3.7049656564492817,-0.6584686106158932,446.94796742416565,0.0,6.9049580000000015,8.426191542324979,1.0,1.0,-1
N2,mp-568584,167,-8.32054614875,1.1263057259925042,8.881784197001252e-16,330.40652472791936,7.0247,6.93068277999686,6.930682866964049,0.0,1.0,1
C,mp-568806,191,-9.21672921,1.9756430064485893,0.010051490000000385,20.190121901693487,0.0,2.4671920450214246,3.830032,2.0,1.0,-1
InSi2As(H3C)8,mp-568872,2,-4.994447935972222,1.4484302598973469,-0.2769658346355549,839.6226418174573,3.4387,9.545532,10.097033212491528,0.0,1.0,1
GaSi2As(H3C)8,mp-568873,2,-5.018985465277779,1.313932016485541,-0.2938252591494448,811.5875170916327,3.7194,9.387888,10.02629737822318,0.0,1.0,1
PdCl2,mp-569008,58,-3.409668858333333,3.3717486048985696,-0.8471409371733332,174.66115361988534,1.3653,3.410757,11.579049,1.0,1.0,-1
InSi2P(H3C)8,mp-569070,2,-5.020838720555556,1.3059041047988085,-0.2824075232069837,819.4940452270157,3.7166,9.477546,9.981402701329909,0.0,1.0,1