pretty_formula,task_id,spacegroup.number,final_energy_per_atom,density,formation_energy_per_atom,volume,band_gap,min_abc,max_abc,Dimension,Dim,is_uv
Hf2S,mp-10000,194,-9.04516013,11.035293578624938,-1.2493709410416671,117.08332298775065,0.0,3.386678708029594,11.787358,2.0,1.0,-1
Tl3Bi,mp-1006059,194,-2.78039636625,10.517436213013116,-0.03664805375000002,259.6030921103102,0.0,5.389167,7.45811023883356,1.0,1.0,-1
Hf2Tl,mp-1009238,139,-7.39523525,13.735758015746038,0.03010830999999925,67.86416076469197,0.0,5.968394181116726,5.968394181116726,2.0,1.0,-1
Hf2Zn,mp-1014231,139,-7.23574785,11.755995457951894,-0.17770741333333362,59.66261541277445,0.0,6.0838171717085645,6.0838171717085645,2.0,1.0,-1
TiMo3,mp-1017983,71,-10.25536149,8.788249859161299,-0.14725621333333372,63.42803022022309,0.0,5.2555336932167975,5.2555336932167975,2.0,1.0,-1
Ti2Re,mp-1018125,164,-9.729218153333333,9.8674381020313,-0.3173810805555561,47.4463624838845,0.0,2.839605,4.3924533513863295,2.0,1.0,-1
Hf2Hg,mp-1018154,139,-6.858210346666668,14.046197038518438,-0.11885765833333295,65.91583222314105,0.0,6.261688056209363,6.261688056209363,2.0,1.0,-1
Re2N,mp-1018948,194,-11.03801546,18.259046829748964,-0.09083994079333264,70.28479355751129,0.0,2.867253304492821,9.87185,2.0,1.0,-1
Tc2N,mp-1019316,194,-9.791533278333334,10.179621045174732,-0.2336292757933336,68.51420658002704,0.0,2.8493665709881912,9.744362,2.0,1.0,-1
Bi,mp-1067758,11,-3.804174895,9.895899999797473,0.08585941499999983,140.26823971980178,0.0,4.577571,6.812139182934241,2.0,1.0,-1
HgO,mp-1077107,154,-2.91844192,9.970012724699668,-0.643769003125,108.22107354600836,1.2835,3.747305833936296,8.899035000000003,1.0,1.0,-1
BPt2,mp-1077788,194,-6.4494582366666675,16.98531080327785,-0.17572250638888912,78.40201478770777,0.0,2.951696242271552,10.390903,2.0,1.0,-1
Bi2Pt,mp-1078313,157,-4.8379187733333335,12.610850871702885,-0.2209266633333332,242.16879186008208,0.0,6.321219,6.651098146306442,2.0,1.0,-1
H3W,mp-1079923,11,-5.576807035,8.990844851208387,0.0925270785350003,69.02458631624727,0.0,3.053199,7.509332873784461,2.0,1.0,-1
Sn4Ir,mp-1080586,68,-5.172695927,9.312326615919162,-0.19735235900000064,237.89419203906743,0.0,6.426266,6.585008325296787,2.0,1.0,-1
Tc3B,mp-1087495,63,-9.70595840625,10.303610336146633,-0.265645531041665,98.24722731482952,0.0,4.862425275808358,7.261352,2.0,1.0,-1
Bi2Pt,mp-1092293,12,-4.81467057,12.204140709007412,-0.19767846,83.4130697317057,0.0,3.95725561640918,5.9270493502188755,2.0,1.0,-1
Te2Ir,mp-1103512,2,-5.310502908,9.881906119996898,-0.2688254813333335,375.9160421781083,0.0,4.030139,14.460901985218243,2.0,1.0,-1
Ni8Bi8SI,mp-1105564,75,-4.756033010555557,9.352676617052447,-0.18056798822916734,408.4218441177902,0.0,4.210371,9.849049,1.0,1.0,-1
Hf2Pd,mp-11454,139,-8.891472353333333,13.114808879079312,-0.5267191833333329,58.67365743239561,0.0,5.878775265124786,5.878775265124786,2.0,1.0,-1
TePt,mp-11693,166,-4.952367165,11.163522065945369,-0.3452628449999997,95.99647584364378,0.0,7.247262554454751,7.247262719023576,2.0,1.0,-1
HgPtO2,mp-1178176,12,-4.4002051,10.439883698180164,-0.6837253468749998,68.02445435728386,0.0,3.2041493915175057,7.679500251358353,2.0,1.0,-1
GaHg3,mp-1184013,139,-0.91819934,10.8876910444002,0.066584809375,102.41293171355423,0.0,5.932285133928156,5.932285133928156,2.0,1.0,-1
Hg,mp-1184554,194,-0.303680365,10.466899494409137,0.0,63.64588320489973,0.307,3.579844133727054,5.73471,0.0,1.0,-1
Hg,mp-1184657,223,-0.29859498125,10.634970792149756,0.0050853837500000046,250.56018516960202,0.5669,6.304307,6.304307,1.0,1.0,-1
Hg,mp-1184687,69,-0.28448253,10.099456407188212,0.019197835,65.96147712112928,0.0,3.4936926862540445,6.72707178987745,2.0,1.0,-1
Hg,mp-1184709,194,-0.2971122775,10.384381870106305,0.006568087499999986,128.30326755535006,0.3035,3.592682104166329,11.478087,0.0,1.0,-1
InPb,mp-1184798,8,-3.189617115,8.895180103503987,0.04254828500000008,60.11384400612199,0.0,3.4336591824683182,5.954195523563279,2.0,1.0,-1
MgHg2,mp-1185877,12,-0.8422053799999999,10.074451538370873,-0.10632511999999987,140.26261619529393,0.0,6.859667854231793,6.888265131349257,2.0,1.0,-1
MgHg2,mp-1185878,12,-0.8595278766666666,10.160804865754224,-0.12364761666666653,139.07057050836409,0.0,6.154381006732846,7.106270054509609,2.0,1.0,-1
MgPb5,mp-1185962,8,-3.335423828333333,9.594732477698123,0.02516207166666658,183.5046343505471,0.0,6.775794691614113,8.106105799901824,2.0,1.0,-1
MgPb3,mp-1185974,194,-3.15153960375,9.067442678185044,0.03301571125000047,236.57177086824586,0.0,6.139337,6.6704543301500845,2.0,1.0,-1
TlSn,mp-1187560,8,-3.132188595,9.052567736303152,0.05342382249999966,59.26595220659579,0.0,3.4473254550548322,5.794370806782478,2.0,1.0,-1
Tl3As,mp-1187593,194,-2.88237967375,9.89695004049939,0.05363966250000018,230.89327554217067,0.0,5.5488370000000025,6.9316930514768895,1.0,1.0,-1
B3Pd16,mp-1196893,15,-5.624793301315791,10.536283219817646,-0.2081467606578946,546.9270866995652,0.0,9.104121101583171,9.15363108972068,0.0,1.0,-1
ZrPt8,mp-1205768,139,-6.828575354444442,18.86269815171574,-0.4824684311111109,145.42128702360472,0.0,6.337926470410966,6.337926470410966,1.0,1.0,-1
Hf2Se,mp-1206927,194,-8.612153085000001,11.44707568155242,-0.8087233591145839,126.476913550978,0.0,3.4498493597944244,12.27101,2.0,1.0,-1
BPd6,mp-1214755,15,-5.593454304285713,10.621185958247539,-0.19935678559523806,203.03561144547558,0.0,4.988260450622541,9.562230983157852,0.0,1.0,-1
VW,mp-1216231,65,-11.08955321,13.073760446546535,-0.06853693999999955,29.82033015358877,0.0,2.720758089568604,4.294738,2.0,1.0,-1
VReMo,mp-1216241,42,-10.91594876,12.419836162835107,-0.12458999833333212,44.53411942262971,0.0,2.7050227825667204,6.863671399095385,2.0,1.0,-1
VRe11B4,mp-1216295,38,-11.038446950625,17.738492995365984,-0.24524243885416475,200.5605933325285,0.0,4.897402983555264,14.633306,2.0,1.0,-1
Tl4Sn,mp-1216560,166,-2.6699512160000003,10.130865837045773,0.021285538999999788,153.45859223143646,0.0,15.170864961952994,15.170865196267252,2.0,1.0,-1
TiW,mp-1216621,65,-10.446852145,11.855525692968547,-0.020042901666666783,32.45394050580856,0.0,2.7889444159812498,4.454217,2.0,1.0,-1
TePtSe,mp-1217257,156,-4.610358066666667,9.281053261643118,-0.3736513607812497,71.86097677317007,0.0,3.9585026123392923,5.295423,2.0,1.0,-1
Ta10SeS3,mp-1217794,99,-10.064551565714286,13.387979545492378,-0.6007903244084828,246.1582755333981,0.0,3.3328330000000004,22.160897,2.0,1.0,-1
TaW,mp-1217811,65,-12.475488645,17.659810867661008,-0.06753659500000175,34.300736870939204,0.0,2.8276928220681965,4.5552160000000015,2.0,1.0,-1
TaRe,mp-1217894,65,-12.351038725,18.529271914578253,-0.19988631750000074,32.903344747893826,0.0,2.803382064116484,4.467671,2.0,1.0,-1
TaMo,mp-1217895,65,-11.458886395,13.523283453942346,-0.10717606500000088,33.99937177786622,0.0,2.8462954773364624,4.477023,2.0,1.0,-1
TaMoW,mp-1217897,42,-11.973266696666668,15.259852931029325,-0.08608432000000002,50.135256694127996,0.0,2.80913459974936,7.154342508041951,2.0,1.0,-1
TaNbW,mp-1217901,42,-11.681916996666667,14.463678795969301,-0.04284728333333495,52.5467420847577,0.0,2.84192200820026,7.2992005851140975,1.0,1.0,-1
TaNbMo,mp-1217902,42,-11.013814166666668,11.755438096378402,-0.07890560000000117,52.23606387954318,0.0,2.857632454071902,7.2280267522284385,1.0,1.0,-1
Ta4SeS,mp-1217968,99,-9.680875746666667,12.496807830746643,-0.6142071025781265,110.92796365903921,0.0,3.362882,9.808843,2.0,1.0,-1
Ta2H,mp-1217971,12,-9.122388166666667,15.549095935497306,-0.13729085954000078,38.75567902877004,0.0,2.932497332534166,4.907778498106959,2.0,1.0,-1
Ta2VC2,mp-1217976,166,-10.770633788,12.043969185860634,-0.5200292420000011,60.23104678515414,0.0,7.447316455417348,7.44731655608307,2.0,1.0,-1
Ta4C3,mp-1218000,160,-11.282649011428573,14.454783374784435,-0.5524414942857143,87.28714723850014,0.0,10.412864027179458,10.412864043379466,2.0,1.0,-1
Ta3Cr5N4,mp-1218060,99,-10.419716876666667,10.962423494969833,-0.7823452941266673,130.09491367584292,0.0,2.98721,14.579036,2.0,1.0,-1
Ta6TeSe2,mp-1218083,12,-9.403969022777778,11.892813744200796,-0.3726590599652787,382.9107738203018,0.0,7.641860637718017,10.974442070117867,2.0,1.0,-1
Si3Au10,mp-1219349,217,-3.721585782692308,14.600694486627473,0.04878017576923045,467.18572727829553,0.0,8.466498174255692,8.466498174255692,0.0,1.0,-1
ReW2,mp-1219490,69,-12.722250266666668,19.292409609129955,0.06467644166666513,47.67424187109372,0.0,2.7433461901825296,7.09758137114475,1.0,1.0,-1
NiBi6Rh,mp-1220131,26,-4.648662234375,10.702236089981476,-0.08808093312500098,439.24689699044427,0.0,4.219117,11.576621,1.0,1.0,-1
NbW,mp-1220316,65,-11.57123432,13.431388320259295,-0.041518565000000514,34.21449552143223,0.0,2.8105301078170286,4.593246,2.0,1.0,-1
NbRe,mp-1220322,65,-11.41300538,14.037573111624944,-0.1400892675000005,33.01700855377557,0.0,2.7809629991146947,4.535669,2.0,1.0,-1
NbTc,mp-1220323,65,-10.360501955,9.672650761457401,-0.12953948000000004,32.773591218279506,0.0,2.816928975357739,4.4192550000000015,2.0,1.0,-1
NbMo,mp-1220327,65,-10.54777713,9.231307464958839,-0.0743030950000012,33.96992167862834,0.0,2.8233766062969714,4.53131,2.0,1.0,-1
NbMoW,mp-1220335,42,-11.35941213,12.3202762891915,-0.05772061666666654,50.23104020180579,0.0,2.801811412112528,7.185357313899982,2.0,1.0,-1
NbReMo,mp-1220357,42,-11.191571603333335,12.686511967537625,-0.06107985166666907,49.09078170138322,0.0,2.773044615190495,7.149460454622923,2.0,1.0,-1
Nb2Tc,mp-1220634,69,-10.305733433333334,9.224802959508164,-0.1179901033333337,51.08858992958882,0.0,2.8474816452525205,7.142706222308531,1.0,1.0,-1
Nb2Pd,mp-1220678,69,-8.69291335,9.433924184220338,-0.2320827199999999,51.43818256797302,0.0,2.824062133127563,6.875164574815064,2.0,1.0,-1
MoW,mp-1221387,65,-11.90766013,14.423725877321232,-0.00577537999999933,32.2098204031891,0.0,2.7566814830054267,4.500382,2.0,1.0,-1
Mo2C,mp-1221498,164,-10.352794533333332,8.897585334040542,-0.046772279999999,38.05172526653037,0.0,3.073101653225451,4.6525370000000015,2.0,1.0,-1
Mo2N,mp-1221525,166,-10.228113316666667,9.34060625269432,-0.3468605674599997,36.601790011728326,0.0,5.275433419937362,5.275433458830942,2.0,1.0,-1
HgPb2,mp-1223969,12,-2.543324146666667,11.052462588233432,0.033000688333333215,92.39704838770771,0.0,3.5087683508972205,8.567379491787321,1.0,1.0,-1
HgO,mp-1224,62,-2.92037400375,9.849066490124043,-0.6457010868749999,146.06670001551564,1.2481999999999998,3.738852,6.7396910000000005,1.0,1.0,-1
HfZrNb2,mp-1224216,35,-9.591756605,9.211271820085342,0.08511828500000007,82.11895117592066,0.0,3.017306813947166,9.746123,2.0,1.0,-1
Hf4AgPd,mp-1224331,123,-8.294947353333333,12.751248114018832,-0.32141515111111235,120.88168827226488,0.0,3.24401,11.486723,2.0,1.0,-1
Hf3N2,mp-1224383,160,-10.684670296,13.345825383411414,-1.5293681109520008,70.11077787992289,0.0,8.175183025895139,8.1751837757585,2.0,1.0,-1
Hf3N2,mp-1224388,166,-10.779062004000002,13.387488527463887,-1.6237598189520002,69.89258643703577,0.0,8.00631619630433,8.006316650998011,2.0,1.0,-1
Hf4N3,mp-1224391,160,-10.775620068571428,13.430294825587225,-1.6775955024485705,93.47035980405492,0.0,10.725674825984845,10.725674951051984,2.0,1.0,-1
H3Pd4,mp-1224413,166,-4.4824046371428565,10.29414211662757,-0.1340136051228567,69.15383846904484,0.0,9.599427917932664,9.599428033219533,2.0,1.0,-1
FePd2,mp-1224793,164,-6.3220906066666664,10.754366405558695,-0.04550177333333375,41.486585288633044,0.0,2.7163615688278684,6.492349,2.0,1.0,-1
FeMo2,mp-1224941,69,-9.990053956666666,9.42113499865022,0.06370902333333342,43.66321471164788,0.0,2.6637531005528645,6.78931941218389,1.0,1.0,-1
CuPd,mp-1225656,65,-4.67510623,10.108140591288002,-0.03556198999999971,27.921572760571642,0.0,2.6700109373987595,4.187999,2.0,1.0,-1
Cu(Bi4Ir)3,mp-1225844,6,-4.81834523,11.553089457816595,0.012586623124999363,452.4602330961573,0.0,4.2424230000000005,11.68545460600609,1.0,1.0,-1
CrRe5B2,mp-1226226,38,-10.86157678875,17.038555677266647,-0.20726842166666687,97.91121692061294,0.0,4.8876975536553,7.212172,2.0,1.0,-1
Cr2Ir2C,mp-1226352,166,-9.41592096,14.395802056793256,-0.1739736640000004,57.72481585533179,0.0,8.957465489533801,8.95746584002557,2.0,1.0,-1
Cr2Rh2C,mp-1226355,166,-8.764528087999999,9.244728402046805,-0.11222981199999964,57.80424582366225,0.0,8.901364344343232,8.901364577779354,2.0,1.0,-1
CdAg,mp-1226716,65,-1.89742755,9.293554316663222,-0.019704668333333286,39.35870009427415,0.0,2.9536115098922537,4.790232,2.0,1.0,-1
AlRe,mp-1228815,129,-8.4108314025,12.276299972751705,-0.3157798950000004,57.67338655497386,0.0,3.101512,5.995543,2.0,1.0,-1
BeAu2,mp-12761,139,-3.5648272433333332,15.141123901598716,-0.13576859500000005,44.1913328173075,0.0,5.520698675544881,5.520698675544881,2.0,1.0,-1
Hf2Ag,mp-13155,139,-7.699021983333334,12.35497755355524,-0.11671074888888927,62.476729948940324,0.0,6.442066556220838,6.442066556220838,2.0,1.0,-1
HfAg,mp-13156,129,-6.5099858025,12.035177733055539,-0.11511337583333335,79.01985142026345,0.0,3.445155,6.657615,2.0,1.0,-1
SiPt3,mp-13363,12,-6.41627645875,16.718541510695527,-0.5067671712499989,121.83728815210587,0.0,5.446100529422588,5.54219180769567,2.0,1.0,-1
BePd2,mp-13452,139,-5.205837513333333,9.646193892946636,-0.5061120183333329,38.19062931036724,0.0,5.337927933376583,5.337927933376583,2.0,1.0,-1
BePd3,mp-13453,63,-5.20174432125,10.121525841664466,-0.3819797475,107.71276805817708,0.0,5.079339094089308,7.694678999999999,2.0,1.0,-1
Re3B,mp-15671,63,-11.206638955,18.73476141756205,-0.20339562354166674,100.9422069165818,0.0,4.925206429591861,7.368135,2.0,1.0,-1
PPd6,mp-1618,14,-5.526962651428571,10.252716467851727,-0.3137374055102039,433.72721761375055,0.0,5.733675,9.647092,0.0,1.0,-1
Te2Au,mp-1662,164,-3.258454463333333,9.343096816165314,-0.07162666333333334,80.36310307048191,0.0,4.22738851991534,5.192563,2.0,1.0,-1
BPd3,mp-20517,62,-5.812781314375,10.491386022522752,-0.2580220141666665,208.96983070686161,0.0,4.89773,7.708900999999999,2.0,1.0,-1
Sn4Pt,mp-20662,68,-4.702850328,9.022160644931539,-0.2810113020000003,246.60056885107238,0.0,6.518976,6.647541944309415,2.0,1.0,-1
PtPb4,mp-21296,125,-4.3094684280000015,11.9683093773928,-0.1251692300000002,284.1168836892232,0.0,6.144727,6.799817,2.0,1.0,-1
Te2Ir,mp-2285,164,-5.314402546666667,9.731602000803797,-0.2727251200000005,76.34440943018494,0.0,3.98783798772242,5.5433410000000025,2.0,1.0,-1
NiBi3,mp-23179,62,-4.386871526875,10.644179451228444,-0.02431162437500056,427.8481188444329,0.0,4.158823,11.546925,1.0,1.0,-1
InBi,mp-23313,129,-3.3220237425,8.67909441379237,-0.0011647224999999928,123.90230299790731,0.0,4.984821,4.985571,2.0,1.0,-1
Zr2Au,mp-2348,139,-7.20591333,9.78663226881268,-0.41615239666666665,64.3768660103275,0.0,6.326919805911404,6.326919805911404,2.0,1.0,-1
Ta2H,mp-24082,21,-9.184565156666666,15.325071106475498,-0.1994678495400007,39.322216978755506,0.0,2.9370014872045944,4.802637,2.0,1.0,-1
Tl2O,mp-27484,166,-3.815362406666667,9.413254201538033,-0.8257052637500001,149.86114728489318,0.5717000000000003,13.338135927529187,13.33813635708306,2.0,1.0,-1
Tl4O3,mp-27684,11,-4.113801186428572,9.508465472167543,-0.9447142826785708,302.3092858203032,1.1951999999999998,3.559559,11.340912705459688,1.0,1.0,-1
Ag3O,mp-27819,162,-3.41400716375,8.823462748311494,-0.2281737940624997,127.82412648175848,0.0,5.043357,5.409800667365204,2.0,1.0,-1
Hf3Te2,mp-28919,139,-7.828758228,9.956184915666254,-0.5971245460000005,131.87163907760365,0.0,9.933362289259113,9.933362289259113,2.0,1.0,-1
Hf2Au,mp-30383,139,-8.166855926666667,14.868838400454695,-0.43743618,61.86427573289134,0.0,6.305615704223657,6.305615704223657,2.0,1.0,-1
Hf2Cu,mp-30581,139,-8.16231314,12.404239886769615,-0.1577850166666662,56.295255323612345,0.0,6.029183938969022,6.029183938969022,2.0,1.0,-1
TiPt8,mp-30852,139,-6.708306157777778,19.082725895430066,-0.4346668581481481,139.97171390956044,0.0,6.277291659388228,6.277291659388228,1.0,1.0,-1
Sn4Ir,mp-31277,142,-5.1801477435,9.269841022007956,-0.20480417550000068,477.96902040465017,0.0,12.4614578896786,12.4614578896786,2.0,1.0,-1
Te2Pt,mp-399,164,-4.51619602,9.645396398881404,-0.39702616333333296,77.52031561415436,0.0,4.092307404079024,5.345008,2.0,1.0,-1
Te3Pt2,mp-541180,166,-4.6912451619999995,10.25151555498079,-0.3769015199999998,250.41049869120042,0.0,17.691180875037173,17.691181215355012,2.0,1.0,-1
TlPt2Se3,mp-541487,164,-4.607140871666666,9.252518493291248,-0.4419403995052077,298.43207681131963,0.6746999999999996,6.008336,7.573215615184411,2.0,1.0,-1
Tl2O,mp-551470,12,-3.8117967066666663,9.508461519422825,-0.8221395637499995,148.36060191706605,0.8405,3.625628703239895,13.171924881875693,2.0,1.0,-1
HgO,mp-556859,11,-2.919859496875,9.877796448579687,-0.6451865799999998,291.28371857726887,1.265,5.822097,7.428448580070068,1.0,1.0,-1
Te2Au,mp-567525,12,-3.25895894,9.349466095623004,-0.07213113999999976,80.30835608746621,0.0,4.22850989249842,5.157011109378474,2.0,1.0,-1
Hf2Te,mp-567584,12,-8.181481583333333,11.102903817600195,-0.4955887066666674,289.89317897809184,0.0,7.84691763408034,10.128458937672061,2.0,1.0,-1
Bi2Pd,mp-568746,12,-4.559667638333333,11.096921577831473,-0.2396841616666669,156.93628148449466,0.0,5.728344250428827,6.823327885930296,2.0,1.0,-1
Hg,mp-569289,139,-0.2961163,10.7862062769837,0.0075640650000000096,30.8808790427138,0.0,3.437354896517669,3.437354896517669,0.0,1.0,-1
Hg,mp-569360,12,-0.30240571666666666,10.607125317516964,0.0012746483333333507,94.2067303058696,0.2281,3.567736651899773,8.809935710406121,0.0,1.0,-1
Bi2Pt,mp-569581,164,-4.827490696666667,12.113384375141644,-0.21049858666666665,84.03802013127154,0.0,4.159898567114948,5.607635,2.0,1.0,-1
Bi2Pd,mp-570197,139,-4.532362863333334,11.390833464839627,-0.21237938666666686,76.44346718462191,0.0,6.935065922359715,6.935065922359715,2.0,1.0,-1
AuSe,mp-570325,12,-3.476211585,8.86850715350843,-0.09131507617187527,206.65793663193435,0.0,6.57338570288706,8.835472732995159,2.0,1.0,-1
Te3Pt2,mp-570562,12,-4.694373608,10.23199784997243,-0.3800299660000001,250.88816085611805,0.0,4.059483433746836,17.729893779178514,2.0,1.0,-1
Bi3Rh,mp-581990,62,-4.90108759,10.818847761475752,-0.14248489000000042,448.08430054617,0.0,4.331192,11.540357,1.0,1.0,-1
PtO2,mp-617,164,-5.786150513333332,9.198821418850256,-0.9320709641666666,40.992192758542,1.5068,3.164120605678772,4.727859,2.0,1.0,-1
Ta2H,mp-632311,115,-9.1466202,15.320903203471588,-0.16152289287333352,39.33291420620286,0.0,3.388072,3.426501,2.0,1.0,-1
Ta2C,mp-7088,164,-11.57843851,14.768671437371712,-0.5976598566666667,42.04076762876415,0.0,3.1250525021671236,4.97079,2.0,1.0,-1
Hg,mp-753304,225,-0.29137629,10.218420805720436,0.012304075000000024,32.59677182043885,0.6321,3.5856112081763687,3.5856112081763687,0.0,1.0,-1
HgPtO2,mp-754538,166,-4.4056410175,10.331594532026358,-0.6891612643749996,68.73744318176621,0.0,7.961250453486122,7.96125127484876,2.0,1.0,-1
Tl6S,mp-755169,157,-2.674562987142857,9.297122853209194,-0.15414759473214293,224.7538236749251,0.0,6.009615,6.571505881248987,0.0,1.0,-1
HgO,mp-7826,152,-2.9190874383333334,9.8588192615054,-0.6444145214583333,109.44165337803429,1.3417,3.757295319704456,8.951613,1.0,1.0,-1
Te4Pt3,mp-8628,166,-4.777251347142856,10.554895618881927,-0.3792617971428568,172.3724246162795,0.0,12.361111308487521,12.361111518008563,2.0,1.0,-1
HfPd5,mp-865166,65,-6.614759655,12.277199542855588,-0.6386600049999996,96.11006575371205,0.0,4.039095,6.251825207463978,2.0,1.0,-1
Ta2Se,mp-8732,129,-9.516310455,12.220232609631974,-0.4458215424479176,119.81084740377622,0.0,3.404318,10.337985,2.0,1.0,-1
TlTe3Pt2,mp-9251,164,-4.420554624166667,9.499054995930504,-0.4316594258333328,341.70346758442315,0.11000000000000032,6.060653,8.068627288398691,2.0,1.0,-1
TaMoN,mp-9587,129,-11.109239751666665,12.824274730004866,-0.8906088024599997,75.33241832725706,0.0,3.094669,7.8659919999999985,2.0,1.0,-1
OsN2,mp-973935,191,-8.998144243333334,10.568466136844435,0.04594869841333349,34.290850444624446,0.0,2.824188887058725,4.964323,1.0,1.0,-1
Re2C,mp-974437,194,-11.401687795,18.100971404782648,-0.029742771666666574,70.53237290318232,0.0,2.8660257194885737,9.915113,2.0,1.0,-1