pretty_formula,task_id,spacegroup.number,final_energy_per_atom,density,formation_energy_per_atom,volume,band_gap,min_abc,max_abc,Dimension,Dim,is_uv
Sb2S19F12,mp-723419,14,-4.290234467727273,2.306514000050649,-1.5238280569289386,3112.2361803110607,1.9716,13.667476999999998,15.91311694448608,0.0,1.0,-1
Rb19O3,mp-779582,226,-1.8787014831818185,1.7938410945079168,-0.4529222202840909,3095.2938815116217,0.0,16.358329898335953,16.358329898335953,0.0,1.0,-1