pretty_formula,task_id,spacegroup.number,final_energy_per_atom,density,formation_energy_per_atom,volume,band_gap,min_abc,max_abc,Dimension,Dim,is_uv
NbP2NCl12,mp-570531,15,-4.0874293190625,2.02075919705376,-1.342019277102679,976.7148203789227,2.4316,8.319674740677426,15.926426667520404,0.0,1.0,-1
Zr(SeCl6)2,mp-570544,43,-3.337599544666667,2.3781733144988344,-1.2985505242538338,942.0393683822721,2.8096,9.106449805244193,13.157203899782507,0.0,1.0,-1
P4N3Cl11,mp-570583,13,-4.310790069722222,1.5147359124748123,-1.0161833612380948,2437.6277982250267,2.4877,11.530487,15.27227274079192,0.0,1.0,-1
TaI5,mp-570679,62,-3.700698169375,4.8198626746902296,-0.4543913852083339,2247.566399225373,1.1727,7.124536999999999,20.917251,0.0,1.0,-1
SbCNCl6,mp-570727,62,-3.988496797222224,2.1816250372659525,-0.7850123541044446,1097.5611020302363,1.9675,8.082896,13.40851,0.0,1.0,-1
GaI2,mp-570738,161,-2.500438337777778,3.91128889686255,-0.4750647602777782,1648.2671768700088,2.3838,15.839489064731257,15.839489301977196,0.0,1.0,-1
VCl4,mp-570763,13,-4.43859812,1.273740555936419,-1.6187361246080003,1005.1488601258296,0.0,6.5986080000000005,13.468432342201742,0.0,1.0,-1
SbCl5,mp-570796,14,-2.87328245,2.385375464053205,-1.1402397627166672,1665.2898526803656,1.8519999999999999,10.138381,13.444282954641688,0.0,1.0,-1
Cu2P8Se3I2,mp-570817,57,-4.471233251166667,3.4080276395311184,-0.13520259154017916,1686.9751917777085,1.3438999999999997,9.437791,13.917832999999998,2.0,1.0,-1
Y(AlCl4)3,mp-570857,151,-4.203837569791667,1.835108641832773,-2.1569994245283337,1615.9747871252564,4.0351,10.787641983604429,16.034333,1.0,1.0,1
ZrP2NCl11,mp-570966,64,-4.2331181251666665,2.023595811184872,-1.4918444395255246,1828.7999485528687,2.8614,11.099991733386336,16.277779000000002,0.0,1.0,-1
CuP4Se4I,mp-571015,64,-4.270831749,3.472253891312498,-0.1448308848660716,1205.4967229933804,1.6639,9.83523969541241,12.609005,2.0,1.0,-1
Nb3Se10Cl3,mp-571061,11,-5.1419754978125,4.173122848928584,-0.8279390711385934,1869.677948878811,1.0930000000000002,7.811681,19.292865,1.0,1.0,-1
AlTeCl7,mp-571179,2,-3.2266518855555555,2.2320189714741234,-1.4860037080911108,1198.5316129744695,3.1497,6.794279,20.34757803592479,1.0,1.0,1
Tl3BiI6,mp-571219,14,-2.6046032285,5.978534698929383,-0.5926963345,1759.3330769986014,2.4866,9.27899,14.016481416816278,2.0,1.0,-1
ZrI4,mp-571235,13,-3.8534212273333335,4.166536162586308,-0.9246710093333336,1431.9813355546617,2.0148,8.852047,18.548254393438754,1.0,1.0,-1
GeBr4,mp-571246,205,-2.84562493175,2.960611264422317,-0.6114781287499997,1760.059268666855,2.9647,12.073757,12.073757,0.0,1.0,-1
MoCl5,mp-571256,12,-4.1367753488888885,2.609380674911724,-1.2842923632722218,1043.1614981722832,0.0,6.340280167800553,12.859530561227574,0.0,1.0,-1
AlInI4,mp-571260,11,-2.7373010991666664,3.877024253545701,-0.638416095833333,1112.5883395024923,3.0259,7.445975,12.509589267165447,0.0,1.0,1
InGa2Cl7,mp-571379,33,-3.264982274,2.6142553944630262,-1.506499116782,1276.5592033498176,3.8337,9.380463,12.41315,0.0,1.0,1
SbS8Cl5O,mp-572131,62,-3.7749657245,2.0591732899674327,-0.9464430226699998,1843.5977372481693,1.4808,9.473584,17.609455,0.0,1.0,-1
CrCu(PS3)2,mp-572465,14,-5.2059706635000005,2.8189596294957946,-0.6642941570892859,871.5265861415346,0.13359999999999994,5.985366,14.530433245846085,2.0,1.0,-1
SbPS4,mp-572597,2,-4.611601314027777,2.665293353861949,-0.7058935525396824,2100.7869258180144,2.0906,6.387481,23.78762486652566,1.0,1.0,-1
B2S3,mp-572670,14,-5.58043405025,1.6538087986817678,-0.8248834217916666,946.3717032612446,2.4329,4.546108,19.27592096992061,2.0,1.0,-1
SbSeCl7O,mp-572726,14,-3.166641731125,2.3976103965670874,-1.101888228766375,2575.7935384084417,1.9449,12.866041,15.211543,0.0,1.0,-1
TaP4(SCl)5,mp-572763,14,-4.868565372166667,2.3039515796529235,-1.058890352580714,1852.0961708317325,2.136,7.302355,18.74992964747252,0.0,1.0,-1
ReP(Cl2O)3,mp-572794,14,-5.011165357272726,2.6666710935731057,-1.5459003288074025,1190.3478867311615,1.8661,6.5791460000000015,14.204797985303173,0.0,1.0,-1
GeS2,mp-572892,14,-4.594256235625,2.567911043269645,-0.7379203727083331,1415.0766085710327,2.2648,6.8561,16.427332,2.0,1.0,-1
WSCl4,mp-572970,14,-4.880682056875,2.9039457571945686,-1.3062620162358332,1636.4026134174192,1.9731,9.605947,13.637977,0.0,1.0,-1
WSeS2Cl5,mp-573078,15,-4.349528274444444,2.9962339748165387,-1.0529424338770836,1117.7171098403971,2.2777,10.194723495409768,14.45990949939162,0.0,1.0,-1
Nb2Se17Cl12,mp-573340,2,-3.79904337516129,3.168301420603868,-0.7448718615794758,2047.7705966820715,1.3182,11.986505,13.885997378826918,0.0,1.0,-1
PICl8,mp-573373,74,-2.6443839955,2.16440597703022,-0.9475733664651428,1354.8875987360307,1.6868,12.295074787297555,12.295074787297555,0.0,1.0,-1
Bi8SbAuBr9,mp-573727,14,-3.2606527451315785,6.931584705863929,-0.4577318967105266,2596.561957677229,1.1646,10.93721,15.586624,2.0,1.0,-1
AlTeCl7,mp-573751,14,-3.227407775833333,2.2199584577153897,-1.4867595983688888,1205.0429541927335,3.2818,6.747966,14.374804924206867,0.0,1.0,1
Al(SeCl2)2,mp-574529,55,-3.560662882857143,2.374069336487537,-1.3102624982467859,1828.1541691957239,1.3831,9.352022,13.990362,0.0,1.0,-1
Tl4Pd3Cl10,mp-574580,122,-3.3077870433823526,5.106152195792845,-1.1004478011823526,1939.9346823757635,1.1367,13.664421094022828,13.664421094022828,0.0,1.0,-1
Re(TeCl6)2,mp-581449,148,-3.333735478,3.009200198024753,-1.0819127602746663,1435.0258255202698,1.0362999999999998,14.166431863113587,14.166432081749342,2.0,1.0,-1
MoP2NCl12,mp-582976,14,-3.9586908765625,2.070307105562972,-1.1667597102276788,1916.4116665545764,0.0,8.445794,21.825425,0.0,1.0,-1
FeCl3,mp-583463,149,-4.208092294166667,2.605780160714477,-1.150203341611667,620.1891076297115,0.4334,6.187586290897121,18.70471,2.0,1.0,-1
W2NCl9,mp-583581,14,-5.064339641458333,3.211922709375643,-1.301557648268333,1449.1575365851322,1.7818,9.128375,17.304039000000003,0.0,1.0,-1
PH9AuC3S3Cl,mp-603254,61,-4.7060134301388885,2.6964087008566247,-0.4172378728492458,1993.782900131536,2.8854,6.7376179999999986,18.689212,0.0,1.0,-1
GaSi4H30C10Cl,mp-604970,14,-5.015862261956522,1.1465351265053467,-0.3323164054208689,2131.1208026442982,3.8673,9.303169,15.880405381884492,0.0,1.0,1
CdSi3PH27C9Br2,mp-604998,14,-4.933862100755814,1.538544389200465,-0.3664228700886369,2256.843058251069,3.6784,12.546058,13.801217,0.0,1.0,1
GaH19C8,mp-605088,167,-5.17069941547619,1.1465002379921705,-0.2279373558790469,1607.3214756855768,3.5573,18.218291582165573,18.21829202004856,0.0,1.0,1
H24RuC8(S2Cl)2,mp-605665,61,-4.951870919807694,1.5146018120257718,-0.4072048544461546,1844.1199901283842,2.3672,8.568968,15.019503,0.0,1.0,-1
Ba2LiN,mp-605860,137,-3.7951957190625,3.7051028981511163,-0.37036154049083336,1059.8532553539958,0.0,8.268627,15.501686,2.0,1.0,-1
Al2CrCl8,mp-607399,29,-4.267502363636364,1.9290166753457043,-1.7970471869163638,1341.4463310739693,0.8876,6.190347,15.719869,1.0,1.0,-1
AlC3(NCl2)3,mp-607454,2,-5.6384562825,1.813882820501972,-0.8071916399384608,1163.5573576453032,2.6079,7.458953,16.436580725577386,0.0,1.0,-1
AlTlI4,mp-607829,14,-2.7540442591666667,4.3266622364313685,-0.7201643808333333,1134.4631096414814,3.4492,8.130041,16.541697278391357,0.0,1.0,1
P4S3I2,mp-608106,62,-4.250074471111111,2.713279786141929,-0.3478368848511906,1160.1129927189031,1.7917,6.9589490000000005,16.759241,0.0,1.0,-1
NbSNCl6,mp-608398,2,-4.4649021780555564,2.290162631433853,-1.2371385163961108,1020.0237701799159,1.8156,6.5252919999999985,13.00251002869296,0.0,1.0,-1
Ti(AlBr4)2,mp-608551,58,-3.667037464090909,2.717058275888458,-1.077759646212121,905.8050325136734,0.345,6.402735,13.512877,1.0,1.0,-1
RhSe2Cl7,mp-613545,14,-3.15175863525,2.3311593878752843,-0.83844986900075,1450.280195183093,1.8899,8.218694000000001,14.344576000000002,0.0,1.0,-1
Ga3Cl7,mp-616204,33,-3.24819167175,2.562369386938648,-1.462067337282,1185.5135962674965,4.144,9.11567,12.065999,0.0,1.0,1
Te4WCl6,mp-616228,15,-3.850350871590909,4.221072132138142,-0.8454021397327274,1427.162714703512,0.0,12.268348086021893,12.344437591050513,0.0,1.0,-1
TlCr4BiO14,mp-616232,14,-6.4348111764999985,4.4094914949607285,-1.6222514898750011,1273.3618812982202,2.0799,8.403941,17.269486999999998,2.0,1.0,-1
TeMoCl7O,mp-616455,14,-3.62932480275,2.7134373225494706,-1.2812681761569995,1193.8542536537213,2.4921,7.574483,13.070343,2.0,1.0,-1
Te3WICl6,mp-617352,14,-3.709459687727273,4.123998442700669,-0.8517189845054549,1459.6360856459607,0.0,11.006155,12.040671108864734,0.0,1.0,-1
Zr(Se2Cl3)2,mp-619928,138,-3.963925461818182,3.0166307045403657,-1.2317025162668185,1364.6645208861155,1.3186,11.048019,11.114009,2.0,1.0,-1
SnHg2(SBr)2,mp-622273,14,-2.6603931942857137,3.850648388851224,-0.5408552801785719,1283.0623085785635,2.4103,9.035094,14.492263450251135,2.0,1.0,-1
Hg2Pb(SBr)2,mp-622294,14,-2.6496085367857143,4.206263507846075,-0.5724884491071429,1314.322369253672,2.3070000000000004,9.252817,14.194779993884088,2.0,1.0,-1
P3SN4Cl5O,mp-624218,62,-5.336025243392856,1.909464881187584,-0.9047640609578056,1301.9404407486013,2.6123000000000003,8.080117,17.569614,0.0,1.0,-1
Ru(SCl3)4,mp-624474,14,-3.0437058576470584,1.954702567686092,-0.7959081609776474,2224.920641033344,0.10749999999999996,11.302983,16.51777472453145,0.0,1.0,-1
SiI4,mp-635441,205,-2.68153896375,3.2233282834592183,-0.37726606775000027,2207.79594846606,2.8561,13.021259,13.021259,0.0,1.0,-1
AsS7IF6,mp-637112,2,-4.089508924222222,2.561114661454322,-1.4883515314898887,2101.7612242569107,1.8164,11.930099,15.930078153850124,0.0,1.0,-1
P3CN4Cl7,mp-638206,14,-5.216604717166666,1.961296983457228,-0.8130391257036185,1385.5647537175007,3.7933,10.608215,13.009424,0.0,1.0,1
Mo3S7Cl4,mp-640341,14,-5.631727321607142,3.0270680222651745,-1.2129228883867864,1435.2330485688008,1.6899000000000002,9.586971,14.360600861056097,1.0,1.0,-1
Mo9O26,mp-640818,2,-7.030286850571429,4.382416019391402,-1.995455723214286,1939.174556082096,1.1725,8.520379622736067,20.14396692437798,2.0,1.0,-1
NaB9Se8,mp-640950,147,-5.276867731851851,3.221982675614344,-0.3103971776620361,2325.28907315954,1.9459,9.038497,17.235546273581527,2.0,1.0,-1
TePCl9,mp-644827,46,-2.910070289772728,2.301297829758942,-1.1063206914010388,1378.6268604361233,1.7979,12.477690127503008,12.477690127503008,1.0,1.0,-1
Al3Bi5Br12,mp-645282,167,-3.3233935205000003,4.751916549572215,-0.8068926445000002,1456.9771229581934,1.5953,12.870096791476668,12.870096852767658,0.0,1.0,-1
TeMo3Se7I6,mp-645655,14,-4.465424061911765,4.507447403489667,-0.3892072352297793,2548.68267186578,1.0595,11.227007,18.554801480634197,1.0,1.0,-1
Te2Mo3Se7Br10,mp-645663,2,-4.111771791590908,4.126549245244623,-0.4906728509730117,1524.9333162511825,1.474,10.652647,12.862052360422465,2.0,1.0,-1
Al3Bi5Cl12,mp-646102,167,-3.74753079325,3.9962327059211855,-1.4608752552060005,1289.1968893886242,1.8969000000000005,12.398685787044892,12.398685905294359,0.0,1.0,-1
ReNCl4O3,mp-647116,14,-5.4082227443055535,3.0189843898200865,-1.1694005569911101,1716.2060858387883,1.4522,10.038352,15.759662898629939,0.0,1.0,-1
SbP3C(NCl5)3,mp-647342,2,-4.131828958478261,2.014763530421817,-0.9900541437719252,1319.5328080162594,2.0998,9.384769,13.401018473993386,0.0,1.0,-1
PBr7,mp-647343,62,-2.362579503125,3.3050564595765097,-0.25360804794642844,1186.326646909281,1.2392,8.342618,15.131229,1.0,1.0,-1
Tl2Mo4O13,mp-648007,61,-6.6215206818421075,5.562125027648501,-1.928071777960527,2389.59109478363,0.0,7.837221,19.396293,2.0,1.0,-1
PNCl2,mp-648211,86,-4.92308482171875,2.1100490753235097,-0.9547198210866072,1459.1812081834362,3.6005,6.067026,15.508389,0.0,1.0,1
SbP2SN3Cl10,mp-648469,62,-4.147696233676471,2.1250835503217327,-0.9227262830886974,1913.8741878851474,1.8205,8.997154,16.34346,0.0,1.0,-1
Nb2PS10,mp-648932,18,-5.731273360576923,2.603466873438081,-1.0892891597939571,1371.1476027656936,1.3728000000000002,7.386663,14.134319,2.0,1.0,-1
Ti2SCl12,mp-649080,148,-3.900259902666667,2.059455143514736,-1.6129141945941112,2676.440902546545,1.9333,14.42191756020596,14.42191762075158,0.0,1.0,-1
ReTe5O6F25,mp-649177,14,-4.6549880858783785,3.9575290297361336,-2.245561653641892,2341.585818247881,2.1627,9.183991,18.682572,0.0,1.0,-1
FeSCl7,mp-649334,14,-3.1600665,2.039750164098782,-0.8578498795494447,1094.399970868134,1.3815,6.527972,13.634648875405665,0.0,1.0,-1
Sn(S4I)4,mp-649878,43,-3.667118766428571,1.8544342108185168,-0.5398111385714278,2040.4766746986813,0.9754,13.701363351010912,16.539660216848983,0.0,1.0,-1
Se5SO3F,mp-650178,19,-4.528711068,3.50614615648142,-1.0177016884783754,1871.1746721483896,1.4033,8.862658999999997,15.515814,0.0,1.0,-1
PCN2Cl3,mp-650336,14,-5.529832861904762,1.93035630279228,-0.6288951666349651,1830.7998227347541,3.4967,10.389318,15.769469659046495,0.0,1.0,1
GaBr2,mp-650841,161,-2.8676779427777777,3.7485705010480577,-0.7670284152777778,1220.1297290981745,3.3617,12.984515319864428,12.984515703237069,0.0,1.0,1
VSb2NCl14,mp-651728,14,-3.5188574456944446,2.6371381432129564,-1.1383966450288894,2027.07435973746,1.1919,6.434262,25.239745935474467,0.0,1.0,-1
PBr2N,mp-652220,2,-4.5804297925,3.011581822754553,-0.42052701023785705,1129.171517009932,3.1115,9.667442,12.27776684459234,0.0,1.0,1
PNCl2,mp-652364,19,-4.933456431000001,1.907775512337224,-0.9650914303678568,2017.3652109131501,3.9764,6.4033440000000015,19.918418,0.0,1.0,1
Mo2Cl8O,mp-653062,13,-3.9323042302272726,2.595463271358524,-1.3045079263481822,1257.8264636964475,0.9251,6.666737,18.465775761701025,1.0,1.0,-1
P4Se3I2,mp-653559,62,-3.9735598177777787,3.2082690696890737,-0.06368169459077361,1272.38794454323,1.7175,7.2392759999999985,16.713714000000003,0.0,1.0,-1
Re2Te4Cl22O,mp-653823,14,-3.4840665132758617,2.640208930859201,-1.0946649599300002,2111.710740252754,0.08360000000000001,9.612757,19.822071337761347,0.0,1.0,-1
NbTe2(SeI3)2,mp-653891,2,-3.2983462425,4.323981354022108,-0.3416366474715912,1946.9608042869672,0.9449999999999998,11.549937,15.908188914882865,0.0,1.0,-1
GaAg(PSe3)2,mp-654129,61,-3.988386346375,4.315263003000939,-0.22211713691220186,2195.8529925693583,1.4987,7.722309,23.046631,2.0,1.0,-1
RhSCl5,mp-657300,9,-3.3921437915476202,2.756345752802644,-0.9483505600369054,2257.246189969583,1.5876,6.977175,24.27534276285933,0.0,1.0,-1
Te2WCl6,mp-662513,14,-4.0085281552777765,3.590399878458886,-1.03432435634,1205.7371408263605,0.0,6.979417999999999,13.315209,0.0,1.0,-1
PSeCl9,mp-662547,46,-2.8032553809090905,2.1732764180953903,-0.967450278205016,1311.179975747689,2.244,12.289797217110172,12.289797217110172,0.0,1.0,-1
SbRu2C6Cl7O6,mp-662588,14,-6.263562335681818,2.5683395028265084,-1.1594980447872727,1914.1043228476715,2.4952,9.395273,17.09306751449116,0.0,1.0,-1
TcC4IO4,mp-662721,14,-7.579743975625,2.7944540053597806,-1.002302255625,1601.7729942301835,2.3319,10.160541,13.31951396460892,0.0,1.0,-1
Te3As2(SF4)3,mp-662789,14,-4.22461404425,3.5570458687640087,-1.9139285039327496,1599.9585484841996,2.071,8.544205,17.610560028840254,0.0,1.0,-1
TaTeCl9,mp-669345,15,-3.8858420504545452,2.867571939140547,-1.4962295640309091,1453.767374669593,2.7788,11.808025743159988,20.089408197753762,0.0,1.0,-1
NbTeCl9,mp-669348,15,-3.661623463636364,2.472864794951413,-1.431690303576364,1449.3299981581529,2.2169,11.810854624218946,20.075699887224506,0.0,1.0,-1
HgS4(NCl)3,mp-669471,14,-4.241062969772727,2.9244592058958037,-0.4397348492654545,1083.903051436981,1.8919,6.374055,17.726754999999994,0.0,1.0,-1
TaP2NCl12,mp-669508,15,-4.2434100184375,2.3618421473931828,-1.3882204396026792,959.4621550575214,2.8754,8.278797810414021,15.847797803026928,0.0,1.0,-1
TeS7Cl2,mp-672186,62,-3.7293472999999997,2.1530423508980645,-0.7331541048394996,1304.8387345566987,2.2625,9.204886,14.32853,0.0,1.0,-1
Al(ICl2)3,mp-672352,15,-2.65355839975,2.6596977578519088,-1.069486446206,1549.37896312978,1.7106,14.497475980307364,14.975431871370555,1.0,1.0,-1
Re2Cl7O3,mp-672376,14,-5.28193292625,3.8586859018830575,-1.4150156251308328,1150.8669542972166,0.3182999999999999,6.304317,17.158087973976734,0.0,1.0,-1
PCN2Cl3,mp-679969,14,-5.543893168125,1.7728655756994225,-0.6429554728552033,2657.9161070519144,3.6218,9.939512,18.40951069512715,0.0,1.0,1
TiSi4(NCl7)2,mp-679971,19,-4.686220695238095,1.8767910936270995,-1.6835727835111112,2422.7436578606216,2.522,12.564494,14.972323,0.0,1.0,-1
Re3(SeCl)7,mp-679999,57,-4.862080055441176,4.795026417520806,-0.7102024827486024,1883.220312832992,1.5043,10.491716,14.645552,0.0,1.0,-1
P6N6Cl10O,mp-680008,14,-5.238908346847826,1.7982113158306336,-1.0224421063938511,2365.527167958983,0.0,9.528564,21.944391056458553,0.0,1.0,-1
Re3(SCl)7,mp-680059,159,-5.150814712058824,3.6617930627365394,-1.0083754496879411,1870.5873341016336,1.6778,9.740974050572664,22.763686,0.0,1.0,-1
Bi34Ir3Br37,mp-680086,1,-3.4207600359459467,6.7142926339922635,-0.4566689578378379,2631.0341092755184,0.0040999999999997705,13.098924,17.39003164987514,2.0,1.0,-1
Sb2Cl5F4,mp-680240,15,-3.6970945665909087,2.9180775072310543,-1.8598711212327272,2261.5445736765687,2.3191,11.408422465267712,18.83881749218209,1.0,1.0,-1
K3P6S6N7,mp-680247,167,-5.959252056022727,1.7210509253134632,-0.8539722140153901,2290.817590906648,3.5462,21.47244512831084,21.47244513996217,2.0,1.0,1
Mo3N2Cl11,mp-680300,29,-5.06054528953125,2.503253276832271,-1.170905651445,1872.8200088967728,0.1591,10.358738,13.825044,1.0,1.0,-1
Re(Se2Cl3)2,mp-680308,56,-3.794773160227273,3.59796569823066,-0.7082932551304547,1319.5180893714667,0.14479999999999993,10.817216,11.252207,0.0,1.0,-1
Mo2NCl8,mp-680309,13,-4.8009384425,2.5005632386344616,-1.1941597096327272,1300.2696805422204,0.0,6.863675,18.63876895274055,1.0,1.0,-1
Ge4Se9,mp-680333,29,-4.048565778653846,4.137943864170446,-0.2058492618149035,1607.1090068431515,1.2215,7.16675,18.126352,2.0,1.0,-1
ZrN6O17,mp-680356,88,-6.559531525833332,2.2721014232178294,-1.2079129123137495,2614.963336069049,1.568,16.63674485479996,16.63674485479996,0.0,1.0,-1
ZnCuTeCl2O3,mp-680388,56,-4.3419120028125,4.09292145963011,-1.3735433065962503,1218.6203437594957,0.0005999999999999339,7.519242999999999,15.797162,2.0,1.0,-1
W6CCl16,mp-680486,62,-5.832515272934782,4.892604836382163,-1.1787259186808692,2283.873565481789,0.40200000000000014,10.101455,17.158146,2.0,1.0,-1
Nb3TlVCl11,mp-680696,62,-5.06875390140625,3.7829557016475888,-1.5973892192725003,1622.416917853503,0.0,6.889297,17.220342000000002,2.0,1.0,-1
TeS7Br2,mp-683875,62,-3.626577474,2.1145138902732583,-0.5537691661875002,1607.8750055167236,2.2268,9.760246,13.711625,0.0,1.0,-1
Cu2P8Se3Br2,mp-683899,57,-4.527195065333333,3.350399108563484,-0.17610921570684562,1529.6354201546435,1.2898999999999998,8.954784,13.948535,2.0,1.0,-1
AlP3(NCl3)3,mp-683949,31,-4.65712639140625,1.953896050713124,-1.2116570934183928,1635.131337797508,3.6551,11.02806,12.320557,0.0,1.0,1
Al(SeCl)4,mp-683984,29,-3.5505123825,2.787055489007619,-1.0233317549905554,2309.9731655976348,1.105,10.90011,15.256675,0.0,1.0,-1
Sc12I25,mp-685088,2,-4.223594534594596,4.6622964297860205,-1.1400825174324325,2644.2155382727037,0.0,13.045935,15.90967146236408,2.0,1.0,-1
Ti4P8S29,mp-685300,9,-5.25538297304878,1.987066406729827,-0.9723351414031652,2288.3136577355413,1.071,12.894695547383812,13.452451904486745,2.0,1.0,-1
Nb3(Bi5Cl9)2,mp-685855,143,-4.0631879511290325,5.404130553525347,-1.102750022054194,1847.736579334192,0.0,11.022591,13.912746456914716,0.0,1.0,-1
In2(PSe3)3,mp-686581,2,-4.045490880178571,4.276316543132887,-0.2450317128077165,1604.8058553225574,0.7303000000000002,8.169138,17.986929899936733,2.0,1.0,-1
Co2TeBr2O3,mp-687088,56,-4.78430408296875,4.425640386583559,-1.0814558321874994,1360.574791925206,2.3675,7.836192,16.260082999999998,2.0,1.0,-1
AgB11H6CBr6,mp-703539,62,-4.9484493396,2.6673282723255296,-0.35674432396879924,1803.5743098812175,3.2973,11.366295,13.168283,1.0,1.0,1
B10H13,mp-706664,14,-4.9032423802173914,0.9297493518374524,-0.16800349733594172,1731.9015005547,3.409,7.334635,16.606582887493865,0.0,1.0,1
B9H11,mp-706937,14,-4.9596602865625,0.961888882196952,-0.17207882592850013,1496.8860140661307,3.319,9.301136,13.408664000000002,0.0,1.0,1
CaPbI4,mp-756451,31,-3.1231529795833333,4.43071133484703,-1.1541034112500002,1131.6775165165786,2.8881,4.621318,16.051043,2.0,1.0,-1