pretty_formula,task_id,spacegroup.number,final_energy_per_atom,density,formation_energy_per_atom,volume,band_gap,min_abc,max_abc,Dimension,Dim,is_uv
Sr2InI5,mp-23504,140,-3.07170478625,4.720867001867265,-1.3528661222916667,650.4321306990588,3.0675,10.062035836598527,10.062035836598527,2.0,1.0,1
MoCl3O,mp-23528,14,-4.5280290745,2.6122073837017106,-1.4636567887060004,555.075410379694,2.4827,6.222478,14.274816,1.0,1.0,-1
AsSe6IF6,mp-23569,13,-3.848443546785714,3.794681864162699,-1.2997363547287502,691.0316349667293,1.5792,7.167808,11.95419588975624,1.0,1.0,-1
SIO3F,mp-23598,19,-4.813516620416666,3.0597216088462065,-1.6210917834274998,981.0709345319541,1.9303,5.720449,13.712734,0.0,1.0,-1
ScHCl,mp-24081,166,-5.217768138333333,2.74214255411043,-1.6090825572933325,98.60600662276569,0.0,9.460800725579046,9.460800808973412,2.0,1.0,-1
SO3,mp-2414,33,-5.807287344166667,1.97276934644584,-1.7547907758854169,808.6991313193075,5.1448,5.508292,12.92134,0.0,1.0,1
CaHI,mp-24204,129,-3.422202205,3.6490456594429537,-1.1657524862066666,152.8918323602096,3.7585,4.028581,9.420633,2.0,1.0,1
SrHI,mp-24205,129,-3.3766226333333336,4.157115097856535,-1.2255457900955555,172.18671049449006,3.7366,4.2813370000000015,9.393789,2.0,1.0,1
CaHBr,mp-24422,129,-3.68048856,3.252075278723843,-1.3864008662066665,123.55711649727192,4.1669,3.849445,8.338185000000001,2.0,1.0,1
VCuO4,mp-25196,74,-6.399182306666668,4.180835992612958,-1.6518865375000011,141.78096528047433,0.2008000000000001,5.820000241550252,5.820000241550252,2.0,1.0,-1
MnO2,mp-25223,164,-7.12472493,4.130026167158968,-1.8006625110383918,34.95426459943111,1.4892,2.931108009322072,4.697923,2.0,1.0,-1
FeMoClO4,mp-25247,11,-6.336625075714286,3.2391893270541554,-1.8668881097514287,257.58699884337824,1.5821999999999998,5.6021881352989205,6.7839350000000005,2.0,1.0,-1
Mn2NiO6,mp-25285,64,-6.276260201666667,4.0366446982776365,-1.3816110759700382,217.66691342552346,1.0134,5.011280751247528,10.013213,2.0,1.0,-1
MnO2,mp-25424,166,-7.130717126666667,3.086803620689608,-1.8066547077050583,46.767480276959645,1.95,6.515959152137543,6.515959687315215,2.0,1.0,-1
AlCl3,mp-25469,12,-3.82810826375,2.2152489543245237,-1.951326073695,199.90274508383652,5.311,6.024170248988984,6.653236117323433,2.0,1.0,1
Ti3O,mp-2591,163,-8.55677322625,4.839896564388118,-1.5737378465624996,219.0317050947076,0.0,5.157727589668244,9.507351,2.0,1.0,-1
NbS2,mp-2648,42,-7.13180166,2.3263117595719005,-1.4493734020833329,112.09376507447573,0.0,3.356787655270437,11.851874011772528,2.0,1.0,-1
Te4O9,mp-27127,148,-5.36933931,5.46063501036603,-1.462862930096153,397.9931990361105,2.3744,7.488495987761293,7.488496153136356,2.0,1.0,-1
TlCl2,mp-27205,88,-2.839080766666666,4.468099385701331,-1.2159624555066664,409.23766264452917,2.3141,9.445541557674023,9.445541557674023,0.0,1.0,-1
Ge(BrF5)2,mp-27218,14,-3.537288673076924,3.2149545226022256,-1.8371054213,436.37624556595375,2.9327,5.132149,14.185896,1.0,1.0,-1
As2SO6,mp-27230,18,-6.022245206666668,3.2317110823707527,-1.7705541522916668,285.58954270708824,4.443199999999999,4.856632,11.577126,2.0,1.0,1
Sb2(S2O7)3,mp-27256,2,-5.937413947758621,3.0220098221451472,-1.8596582055172408,848.2869769080472,4.2577,6.779567,12.952110085732205,2.0,1.0,1
PCl3O,mp-27277,33,-4.259878326,1.7261840533509714,-1.575777473920286,590.0043965137277,4.6845,6.071253,9.902843,0.0,1.0,1
ReCl4,mp-27340,13,-4.488277401,3.6696233320696097,-0.9962911826079996,593.7267286556844,0.0,6.432367,13.084165434771373,1.0,1.0,-1
Re4Cl8O9,mp-27343,2,-6.337935389047619,3.629379632207008,-1.6703208284442848,536.4259405452293,1.0277,6.43301,13.014840839316824,0.0,1.0,-1
AsO2,mp-27356,62,-5.9818709791666675,3.9540026347783,-1.5983878650000003,359.2218167076737,3.3948,5.325336,8.961441,2.0,1.0,1
Se2O5,mp-27358,14,-5.064383666428571,3.2650123763797256,-1.032933623705358,484.00487050689804,3.0247,4.856602,14.019350867316401,1.0,1.0,1
Nb(SeCl)2,mp-27361,2,-5.076810246,3.9844402295760375,-1.1566442562414998,268.16775014694747,1.0272,6.445585,7.952064351462077,2.0,1.0,-1
Nb(SCl)2,mp-27362,12,-5.425745881999999,3.040444404286217,-1.5147485365539992,248.981514932612,1.5930000000000002,6.449575142185181,7.413779639466227,2.0,1.0,-1
SeOF2,mp-27367,29,-4.43823526125,3.074636492888286,-1.792565957743438,287.22611649838984,4.0951,5.774916,7.824889999999999,0.0,1.0,1
NiCl2,mp-27396,166,-3.7863210966666654,3.2213103020889697,-1.0237082188400002,66.80662417661625,0.0,6.729793185244849,6.729793733382103,2.0,1.0,-1
ZrCl,mp-27440,166,-6.481173985,4.1319044352272565,-1.5803981816300006,101.81847650990929,0.0,10.055979110998043,10.055979575029028,2.0,1.0,-1
As(IF2)3,mp-27445,2,-3.5222124325000004,3.6533774329128015,-1.7467667272140006,517.8141573843617,1.3464,6.071606,10.613244707010388,0.0,1.0,-1
Al2PdCl8,mp-27452,14,-3.726425775909091,2.0149808332092802,-1.6626220228254551,731.8095392135235,1.6806,6.907935,14.04285005970355,0.0,1.0,-1
WSCl4,mp-27475,2,-4.880832844166666,2.8034849330202265,-1.3064128035274998,423.7604748936717,1.9711,6.693469,8.376008491159139,0.0,1.0,-1
Tc2O7,mp-27485,61,-7.415716229166668,3.11207188213836,-1.8111719956944456,657.3614975722237,2.6726,5.891361,14.269104,0.0,1.0,-1
ScCl,mp-27507,166,-5.515480605,2.54709878805976,-1.7223205641299997,104.84252931588208,0.0,10.115129313376078,10.115129653427928,2.0,1.0,-1
VPCl9,mp-27523,67,-3.686362975,1.9760320853078115,-1.3425583639010392,673.9397820573138,0.12499999999999988,6.438917,10.487315565940458,0.0,1.0,-1
CrCl3,mp-27630,12,-4.93242649875,2.632721939321136,-1.578776398695,199.75890808518443,0.1521999999999999,6.060105320032401,6.580752454886903,2.0,1.0,-1
TiBr4,mp-27634,14,-4.1196592225,2.6587863181411326,-1.2310195871666672,918.0427530377813,2.7916000000000003,7.441783999999997,11.21976926073794,0.0,1.0,-1
TiPCl9,mp-27664,2,-3.767952934090909,2.0606996393844645,-1.5321859642040692,641.2948073232162,2.1747,7.277271000000002,9.863074788656226,0.0,1.0,-1
Sb4Br2O5,mp-27700,14,-5.256329949545455,4.972065192346587,-1.527404005568182,485.49424481429605,2.381,5.247277,13.815801183388714,2.0,1.0,-1
InClO,mp-27702,59,-4.566137823333333,4.284666259431109,-1.8157377648366664,128.8774798790827,2.3707000000000003,3.577984,8.662753,2.0,1.0,-1
InBrO,mp-27703,59,-4.372563303333333,5.104885409975443,-1.4944713904166662,137.08872531590416,2.0057,3.688204,9.009691,2.0,1.0,-1
VCl2O,mp-27712,71,-5.3872917025,2.729765549935128,-1.8484733294425,83.85341468799152,1.0646,7.017217252938447,7.017217252938447,2.0,1.0,-1
VBr2O,mp-27713,71,-5.065242425,3.889864694090656,-1.3348862703125004,96.79653056585256,0.3904,3.6549785757994533,7.6028755232111385,2.0,1.0,-1
SO2,mp-27726,41,-5.741653651666668,1.4003950306506645,-1.7535467168750003,151.92919187298403,3.2037,4.771293666055046,6.6912660000000015,0.0,1.0,1
RhCl3,mp-27770,12,-3.847635785,3.4898426924280828,-1.066170584945,199.14472262974445,1.5617,6.090913952929068,6.520898549053191,2.0,1.0,-1
NbPCl10,mp-27787,2,-3.777184689583333,2.0931870036423748,-1.4394263005142858,759.0518470316106,2.2867,7.3478210000000015,14.176403754128726,0.0,1.0,-1
TaPCl10,mp-27788,2,-3.98712106875,2.468375204930632,-1.5029899638476192,762.1329844845459,2.3387,7.3582100000000015,14.187009875266492,0.0,1.0,-1
Ni(NF7)2,mp-27806,87,-3.341194963529412,2.6163497345063584,-1.0230312618482358,223.8409838901099,2.3579,6.7837555470345485,6.7837555470345485,0.0,1.0,-1
Mn2O2F9,mp-27807,15,-4.78644342173077,2.9273195946203,-1.9133192078415653,709.8877960833377,0.6096000000000004,9.319765685391078,9.882157737576646,1.0,1.0,-1
Li2Te2O5,mp-27811,14,-5.339396102222222,4.339423788817056,-1.8579766647685187,534.3191585237438,3.4818,4.868169,12.29431501418184,2.0,1.0,1
Tl2SnCl6,mp-27832,225,-3.2268313722222213,4.548495975429054,-1.42061096384,270.2260388546169,2.6353,7.256837491205242,7.256837491205242,0.0,1.0,-1
Tl2TeCl6,mp-27833,225,-2.9217987144444444,4.4567013726869416,-1.2118306310622224,279.10423841983766,2.6503,7.335456451564688,7.335456451564688,0.0,1.0,-1
VBrO,mp-27841,59,-6.237784745,4.026289121319713,-1.8096187187500008,121.12478057762793,1.5566,3.472918,9.049954,2.0,1.0,-1
CrBrO,mp-27842,59,-6.157358258333333,4.183165068558561,-1.649811765416666,117.41965409231787,1.6881000000000002,3.352684,8.86927,2.0,1.0,-1
TiIN,mp-27848,59,-7.0695228000000006,4.637499402754486,-1.2788638602377784,135.19075647538224,0.014800000000000146,3.541317,9.600037,2.0,1.0,-1
TiBrN,mp-27849,59,-7.335914168333333,3.9395890311014403,-1.5076172535711112,119.51876592410623,0.5551000000000001,3.377704,8.932372,2.0,1.0,-1
TiNCl,mp-27850,59,-7.5615719666666665,2.960848314364915,-1.860966906324445,109.16789407222551,0.5605000000000002,3.27536,8.402486999999999,2.0,1.0,-1
MoS2Cl3,mp-27866,14,-4.785297279166667,2.799904257768424,-1.193101330171667,632.0441304343527,1.4427,6.252996,14.3665687857959,1.0,1.0,-1
Nb3Cl7,mp-27880,64,-5.5721777325,3.40718211953668,-1.6640905367820005,1027.1498623564248,0.9757000000000002,9.533830521097226,11.305207,2.0,1.0,-1
AsClF8,mp-27926,15,-3.667625511,2.700476729219119,-1.939888465778,322.65566763041414,3.3985,5.75131500637489,10.491501140447014,1.0,1.0,1
AlICl6,mp-27935,4,-2.9095948,2.196263187708041,-1.31050801182,554.3600436045623,2.2907,6.354327,11.862518,1.0,1.0,-1
BrF5,mp-27987,36,-2.809547825,2.876906453223976,-1.352934956825,201.8985823020005,3.4572,5.039690172317044,7.995674,0.0,1.0,1
IF7,mp-27988,41,-3.152993069375,2.9229647104381966,-1.71951012541625,295.2912593411358,1.5547000000000002,5.583702940371559,9.787974,0.0,1.0,-1
SbAsO3,mp-28109,14,-6.013951437499999,4.5369958240792165,-1.7089282272499986,358.21092411107367,3.5748,4.658626,13.652463,2.0,1.0,1
In5Cl9,mp-28112,167,-3.1330683175000003,3.5672557416473967,-1.3442770717385717,831.5292224117312,2.9919,9.477322642810996,9.477322833154359,0.0,1.0,-1
TiCl2,mp-28116,164,-5.26013993,2.6823127960692252,-1.7924086066177776,73.52878711472684,0.0,3.527367743226669,6.823784,2.0,1.0,-1
VCl3,mp-28117,148,-4.89582825625,2.4816248071365563,-1.6844635061949995,210.5101663189008,0.0,7.433733402458887,7.433733796409579,2.0,1.0,-1
MoS2,mp-2815,194,-7.239072113333332,4.053379365580824,-1.3085311920833338,131.15105417850478,1.4648999999999996,3.1903153919636225,14.879004,2.0,1.0,-1
Ca(AuF6)2,mp-28153,115,-3.5279458066666667,4.322362807980768,-1.8212815022853333,254.32005304096074,1.6254,5.73252,7.739082000000002,2.0,1.0,-1
As(BrF2)3,mp-28159,2,-3.497709281,3.193085940019259,-1.688389398214,445.8050563840544,1.6356,5.787242,9.95886916723169,0.0,1.0,-1
BiClF8,mp-28194,2,-3.423392818,3.836664511776312,-1.7725641822779998,343.14803058453657,2.1059,5.399787,10.779047535428953,1.0,1.0,-1
TiBr3,mp-28214,2,-4.4259018175,3.824505501861757,-1.2243339083333336,249.7243965272364,0.05610000000000004,6.488226050034015,7.780594731885346,2.0,1.0,-1
MnCl2,mp-28233,166,-5.371988129999999,2.673234318656546,-1.4821853220583907,78.17083282339699,1.7973,6.877680395258638,6.877680908689281,2.0,1.0,-1
SnPCl9,mp-28293,2,-3.1383972472727275,2.3156404605635648,-1.2558957466283118,672.2939691602587,2.4344,7.41626,10.001985084503376,0.0,1.0,-1
TeAuCl7,mp-28330,2,-2.613408938333333,3.0604826901594624,-0.9251712375355556,621.5053012990312,1.5772,7.976201,9.530040298555036,0.0,1.0,-1
NbAlCl8,mp-28358,63,-4.2102839345,1.9835960016973384,-1.822515066108,675.5884808203566,2.0189,8.741689,9.929485667094443,0.0,1.0,-1
Al2CdCl8,mp-28361,7,-3.5162495413636363,2.2117831863254502,-1.8394450655527272,675.6895447124816,3.858,7.107631,13.230190183010675,2.0,1.0,1
SiCl4,mp-28391,14,-3.8147144245,1.5483838528167433,-1.7265708391080001,728.8152367501175,5.7869,6.85595,10.486663323656623,0.0,1.0,1
S(ClO)2,mp-28405,43,-4.2866424589999985,1.724414446399562,-1.392237907429,259.940556841354,3.7891,6.189147388297437,9.870939452445445,0.0,1.0,1
SCl2O,mp-28406,14,-3.789422045625,1.6541210666336237,-1.2328327233487495,477.7280235504931,3.6401,6.1845550000000005,9.45008848653863,0.0,1.0,1
CClF3,mp-28473,36,-4.74822885,1.918271964625471,-1.7997724343660004,180.8482878798724,6.7176,4.894075,6.193187355824139,0.0,1.0,1
Sc2CCl2,mp-28479,164,-6.66346544,2.7582170050041097,-1.7835812673039997,104.04856304059662,0.8820000000000001,3.4489886708686077,10.100014,2.0,1.0,-1
Sb5IO7,mp-28485,190,-5.596991415,5.190107029423,-1.6055547152884615,542.4317483714241,2.4519,6.947386202739704,12.976919,2.0,1.0,-1
Cu2SO4,mp-28491,70,-5.466940704285713,3.943393711673525,-1.3735028354464294,187.9380849518253,1.4397999999999995,5.90323554693458,9.268022194425953,2.0,1.0,-1
KInBr3,mp-28529,147,-2.959353408,3.535791055537701,-1.2047809486000003,739.4499953221291,2.3375,8.787917797025699,11.056208,2.0,1.0,-1
CaInBr3,mp-28534,63,-3.439335072,3.8629472691645272,-1.5057224260000002,339.2549544869205,3.1362,7.509284377608094,10.961292,2.0,1.0,1
RbLiO,mp-28545,62,-3.9795856708333335,3.358712795868384,-1.6012115348611111,214.3869537892341,2.2574,3.559867,9.117514,2.0,1.0,-1
RbBrF4,mp-28577,140,-3.2890121091666664,2.817200788649683,-1.9057352512099999,284.5354146535946,3.4059,7.51832365470076,7.51832365470076,2.0,1.0,1
Re(TeCl6)2,mp-28633,2,-3.3182859333333337,3.0948196269767405,-1.0664632156080005,465.1084197481607,0.8652,6.767877069271168,11.306118218006509,2.0,1.0,-1
AsBr5F6,mp-28647,15,-3.1851207266666663,3.0094765981934897,-1.4045330676783332,649.3583346063947,1.6707,7.39783194262515,12.64395474882226,0.0,1.0,-1
CsBr2F,mp-28650,123,-2.893988885,3.6391051747526335,-1.4965374885302591,142.23543647679614,2.2353,4.392318,7.372592999999997,2.0,1.0,-1
ZrTe2Br5,mp-28671,12,-3.811278159375,3.891584455463993,-0.933911260625,636.5886017232452,1.1525,9.261867754737432,9.908722853492725,2.0,1.0,-1
P4SO6,mp-28673,14,-6.507921684090909,1.9552508804544253,-1.9079102181737009,855.9178347251964,3.7055,8.482132,10.31065893451752,0.0,1.0,1
S2O5F2,mp-28676,114,-5.411445676944443,2.0543611194513964,-1.965289305264444,588.8423269339429,5.6111,7.801736999999997,9.67423,0.0,1.0,1
Ta(ICl)2,mp-28683,71,-4.626397682,4.5964060961610125,-1.1436967193040004,365.36060982010736,1.2037000000000002,7.96765229295713,7.96765229295713,1.0,1.0,-1
Sb2S2O,mp-28711,2,-4.90738609,4.465751945997382,-1.0174565535,481.38139250062596,1.4025,6.060551,11.073829896890686,2.0,1.0,-1
Si3CCl8,mp-28813,2,-4.366997797083333,1.7834762103378898,-1.4058702492566668,707.4096923760375,4.5636,9.04004,9.635842379257664,0.0,1.0,1
OsO3F2,mp-28845,14,-6.197346212916668,5.021297107470204,-1.7297743589383334,365.38958319486915,2.3215,5.1611150000000015,12.637922291748161,1.0,1.0,-1
Te2OsCl12,mp-28866,2,-3.1656685593333327,3.1544986459228084,-0.994992023941333,458.4268934915442,0.0,6.7710089999999985,11.299270078667028,2.0,1.0,-1
Nb3TeCl7,mp-28938,164,-5.41764512,3.729077462973004,-1.5790839484381811,582.882204494646,0.7027000000000001,6.9857016576880815,13.79209,2.0,1.0,-1
P2SO3,mp-29006,14,-6.353292544166668,1.9581812005738333,-1.8471995448363097,963.4015687988267,3.7573,6.759773,12.15412760997518,0.0,1.0,1
P4SeO6,mp-29020,14,-6.410071877954545,2.2967008388128467,-1.8079766292390416,864.2910667816707,3.1649000000000003,6.756310000000001,12.378083752140352,0.0,1.0,1
P4SO7,mp-29081,2,-6.632482082083333,2.0460728495693807,-2.0619994492633915,434.9318782286528,4.0787,7.184212,8.476821481685986,0.0,1.0,1
RuCl2O,mp-29132,71,-5.213842895,3.7151029438661403,-1.2069036256925,84.01933943045225,0.0,6.848419463487617,6.848419463487617,2.0,1.0,-1
SiCl2,mp-29174,19,-4.0221794325,1.6461248217189932,-1.3778407746733332,399.4332649444606,2.0198,4.02709,13.796232,0.0,1.0,-1
Te2O3F2,mp-29185,2,-5.004506289285715,5.074401426690333,-1.8809779273042857,223.30422440605702,3.3911999999999995,5.344311,7.126919097276046,2.0,1.0,1
P4(S2O)3,mp-29204,11,-5.464322861538461,1.7865563221477312,-1.2160090882142864,677.1760365043965,3.2713,6.965406,13.003087,0.0,1.0,1
CuClF10,mp-29279,14,-2.73860303875,2.595601844997353,-1.1087231233466668,369.7544098648206,0.0,5.310968,9.377537,0.0,1.0,-1
I2(OF2)3,mp-29291,14,-3.689839544772727,3.6485623337241657,-1.4799920503081816,756.9535917932594,2.3843,8.746055,10.084646648602863,0.0,1.0,-1
Ga2CuCl8,mp-29300,14,-3.219450859090909,2.3773314339774516,-1.3843412691890908,679.7915232885358,0.5977000000000001,6.9109479999999985,12.772314468414136,0.0,1.0,-1
Te3SeO8,mp-29320,2,-5.32995596875,5.190835228014803,-1.4223611339453128,377.32330398205545,2.6333,5.026029,11.81086559186684,2.0,1.0,-1
SbCl3F2,mp-29391,82,-3.5538387637500004,2.6372841408997374,-1.765229690776667,670.2284155338755,1.8445,10.161718908268275,10.161718908268275,0.0,1.0,-1
Hf(Te2Cl3)2,mp-29419,2,-4.0299625,3.770547530634984,-1.2978262790509092,397.0657562582064,1.3127,7.340541,7.872294887787866,2.0,1.0,-1
Ta(TeCl3)2,mp-29428,2,-4.224221731666667,3.489929409313199,-1.3722789149511117,617.4721699805543,1.1770999999999998,7.161927,11.838978026046373,0.0,1.0,-1
TaCl4,mp-29465,12,-5.153033571,3.5849223975163063,-1.7783972636080008,299.0052952010604,1.2262,7.39873886127913,8.736717706244148,1.0,1.0,-1
P4SeO7,mp-29489,2,-6.54488934,2.3287255490480114,-1.9724965729482893,449.0199658520253,3.5580000000000003,7.209516000000002,8.693460454832241,0.0,1.0,1
S2I2O11,mp-29492,14,-5.111870786500001,3.5385697009549717,-1.3321157785000006,927.1474252501558,2.6356,9.320915,10.661384,1.0,1.0,-1
PH2F3,mp-29515,36,-4.5475515775,1.9271697850694285,-1.8551499798969049,155.07026172955526,6.4670000000000005,5.089849604531159,6.278638,0.0,1.0,1
P2SeO3,mp-29543,14,-6.179585238958333,2.486761203785345,-1.669671971164434,1009.1369742422087,3.2150000000000003,6.832561,12.366096185629196,0.0,1.0,1
Tl2MoCl6,mp-29562,225,-3.929459891111111,4.676663049507282,-1.3636760188400001,254.73538782431442,0.0,7.115434519744244,7.115434519744244,0.0,1.0,-1
RePCl9,mp-29592,2,-3.708378998636364,2.771007209847568,-1.0590633770828577,642.7099578838481,0.20809999999999995,7.2113369999999986,9.87288715223232,0.0,1.0,-1
NbTeCl9,mp-29713,2,-3.653938265,2.508260042053468,-1.4240051049400002,714.4389075739807,2.1717,6.7048130000000015,11.821178280158115,1.0,1.0,-1
IF3,mp-29848,62,-3.150775396875,4.191037397259628,-1.7043596427674998,291.45299682670014,2.1757,4.728605,9.124425,0.0,1.0,-1
SnBr2,mp-29862,62,-3.2050903375,4.294021769192879,-0.7772820258333333,430.8222404175004,2.5562,4.312206,10.820366,1.0,1.0,-1
AsCl3O,mp-29863,14,-3.6829963185,2.264378890092772,-1.1497289577060001,578.6860997373573,2.5362,6.701063,10.927017029698682,0.0,1.0,-1
SnCl4,mp-29866,14,-3.216733692,2.0829766751450984,-1.4117385396079996,830.7475813259024,3.6854,7.268382000000001,10.887088288743367,0.0,1.0,1
Ir(Cl2F3)2,mp-29870,14,-3.4407519036363636,3.0812373434348066,-1.4064668918345455,482.8928545619405,0.0,5.465329,11.415986,0.0,1.0,-1
Re2PCl13,mp-29878,11,-4.0363115421875,2.904883446522355,-1.1236613591219642,988.1052744981488,0.8085,9.185393,11.1719,0.0,1.0,-1
IO2F,mp-29946,19,-4.0098603225,4.5610348194855925,-1.1508869009224996,259.075135405718,2.9217000000000004,5.628217,7.966098,1.0,1.0,-1
Nb3Cl8,mp-29950,164,-5.368837016363636,3.3609496030328194,-1.7020440223709092,555.6719755404166,0.15120000000000022,6.831403647081982,13.7489,2.0,1.0,-1
Sc(IO3)3,mp-30002,148,-5.222152401153847,4.569537567859798,-1.4440373112499998,414.0240377787824,3.8721,7.5166144183274435,7.516614839564217,2.0,1.0,1
AuSO4,mp-30003,61,-5.389139816458332,4.897038149541343,-1.4342176028125,794.9072364460256,1.6517,8.53191,10.597808,2.0,1.0,-1
CaI2,mp-30031,164,-3.3262862966666664,3.3852585655729546,-1.6417445933333332,144.15759847606628,3.8983,4.545380389838127,8.056872,2.0,1.0,1
MgBr2,mp-30034,164,-3.1324861800000003,3.329358988691528,-1.507775136666667,91.8275350322254,4.4603,3.884752069799565,7.026122,2.0,1.0,1
GeCl4,mp-30086,14,-3.33251898,1.8399246047245448,-1.4048326276079997,774.1750352076317,4.2671,7.028178,10.674458920179186,0.0,1.0,1
TiCl4,mp-30092,14,-4.6479014835,1.5564425852966657,-2.065722298774668,809.4597066131716,3.4737,7.168448,10.750606540100005,0.0,1.0,1
BeBr2,mp-30139,72,-3.381007663333333,2.7556871884807554,-1.0432523483333336,203.45742333408523,5.3455,7.177752916973738,7.177752916973738,1.0,1.0,1