pretty_formula,task_id,spacegroup.number,final_energy_per_atom,density,formation_energy_per_atom,volume,band_gap,min_abc,max_abc,Dimension,Dim,is_uv
AuBrF6,mp-30159,4,-2.999273034375,4.522997317373723,-1.3200094240175,286.99550098024207,1.9743,5.603522,9.034947329744098,1.0,1.0,-1
KAsO2,mp-30298,57,-5.46615395,3.1251354926310926,-1.9009418776249998,310.34783147914897,3.8788,5.5130339999999975,7.552111,2.0,1.0,1
GaCl3,mp-30952,12,-3.250781085,2.08457796513668,-1.55336897682,280.5278044910064,4.2785,7.285754914472076,7.445987188341451,0.0,1.0,1
S(IO3)2,mp-30984,15,-4.78004125,3.896519903781337,-1.2250403711805555,325.47536448124316,1.9691,8.025771442725366,10.51337679506965,2.0,1.0,-1
Sn(SO2)2,mp-31004,14,-5.664938022142858,2.9351263217265227,-1.6737646701785718,558.5905790448968,2.6914,7.4196490000000015,11.2323375424773,0.0,1.0,-1
AsI5F6,mp-31020,15,-3.196569553333333,3.835016980324724,-1.463029363095,713.0841640872992,1.4406,8.90488892642783,10.756185748567658,0.0,1.0,-1
NbCl4,mp-31040,12,-4.754591782,2.58531622603302,-1.731249992608,301.5174977160307,1.0799,7.409525637391505,8.738783353744445,1.0,1.0,-1
Tl2Cr2O7,mp-31230,2,-6.096713794999999,5.125296472147844,-1.5764356876136365,404.82708696978204,2.2977,7.535238,7.923640838129275,1.0,1.0,-1
AlBiBr6,mp-31268,2,-3.11535947125,3.8327743888053054,-0.93321329875,619.8780195418135,2.5722,8.135292,10.000047125937256,1.0,1.0,-1
CuSe2O5,mp-3199,15,-5.18316561875,4.013258855342598,-1.1432459976171885,249.4686272070541,0.0,6.773597100907757,8.047023272627587,1.0,1.0,-1
W(ClO)2,mp-32539,26,-5.640010486,3.8234211193020937,-1.7187786138040004,249.07062428494282,1.8124,3.874579,8.322164,2.0,1.0,-1
TiNbS4,mp-34289,12,-6.881226213333334,3.656197637352733,-1.5664334593055558,122.18716875297396,0.0,5.8820443697123705,7.000968040989188,2.0,1.0,-1
Au(OF3)2,mp-3530,2,-3.343238104444444,3.4467633726194453,-0.9653344066266664,165.22500179346437,0.0,5.509899,5.6319171476190935,0.0,1.0,-1
P2S2O3,mp-3667,120,-6.084116750714286,1.7182105201339832,-1.7256099131632658,672.9316038086853,4.0083,9.915776410295967,9.915776410295967,0.0,1.0,1
P2O3,mp-368,11,-6.682399678,1.8943461776390609,-1.9696860521785715,385.5032877573806,3.8533,6.6611660000000015,8.487091,0.0,1.0,1
VCl2O,mp-36862,15,-5.399793405,2.6896565854026293,-1.8609750319425,170.2077238425129,1.6533,3.734687891262936,7.0069017878592375,2.0,1.0,-1
Tl2SO4,mp-4112,62,-5.374915033214287,6.427091232072147,-1.7779210758035715,521.7219288111168,3.9287,5.981184,10.936491,0.0,1.0,1
PdSe2O5,mp-4649,15,-5.268970239375,4.265618090629221,-1.0939662257421876,268.090123601056,1.0753,6.995281002363307,7.489242264625707,1.0,1.0,-1
BNF8,mp-4674,113,-4.4159400355,2.2264899200854646,-1.8163135326066668,527.4517229610217,3.0599,5.281922,9.992988,0.0,1.0,1
Te2SO7,mp-4906,31,-5.6671944095,4.305945444142485,-1.7192694086875,307.9408063861344,3.2922,4.770612,9.062786,2.0,1.0,1
Ru(OF3)2,mp-505242,206,-4.617690494722222,2.6947311877405253,-1.5730636730155565,608.9683262088638,0.0,9.248519113873042,9.248519113873042,0.0,1.0,-1
PtF6,mp-505319,62,-3.5510553921428567,4.825305493788912,-1.4661684617342858,425.44883280772996,0.0,5.062652,9.586923,0.0,1.0,-1
CrO3,mp-510421,40,-6.62043992375,2.3980401680812062,-1.5261789546874995,138.48345311094684,2.3076,5.052288048909425,5.831350000000343,1.0,1.0,-1
Nb3Se5Cl7,mp-540615,11,-5.029486552333334,3.5851529984219206,-1.2587912626359177,853.8003736207105,0.9467,8.230838,12.79333,1.0,1.0,-1
RhF5,mp-540622,14,-4.0633637135416665,3.6710304948791386,-1.6521872903666666,716.1292873148253,0.0,5.69259,12.64043526258214,0.0,1.0,-1
Al2CoCl8,mp-540759,15,-3.92931694090909,1.9161880332350991,-1.6902008255527272,687.236733834859,0.3448,9.9162843901415,11.6401868582875,1.0,1.0,-1
OsO4,mp-540783,15,-7.182624333,4.509052699416657,-1.5406250679999989,187.24769469319926,3.2991,5.439724753897388,8.958920870488921,0.0,1.0,1
Cs2Sn2O3,mp-540796,62,-4.950518924285714,4.59748919416529,-1.7295268013731524,796.3803048572412,2.5497,6.21534,13.960715,2.0,1.0,-1
S3(NO7)2,mp-540798,9,-5.925769045526316,2.0856658236474424,-1.411914806665,554.4509541600063,1.4221,7.75017974116949,10.574694927386462,0.0,1.0,-1
FeClO,mp-540828,59,-5.396129026666666,3.3119348467930223,-1.6506225848366671,215.18723367053192,1.9144,5.0790887635556246,9.00368809394578,2.0,1.0,-1
YCl,mp-540884,166,-5.646387235,3.566988837993552,-1.7862261899633332,115.78546392009918,0.0,9.679535410779849,9.679535428561124,2.0,1.0,-1
FeTeCl7,mp-540997,1,-3.4070523177777776,2.440718188187561,-1.1414678014244446,587.2986346710078,1.2736,6.7894679999999985,10.33099962020549,2.0,1.0,-1
AlGaCl4,mp-541111,14,-3.652035611666667,2.2176614638594567,-1.6871897384233334,714.3850165231662,4.2234,7.277469,11.705552719176698,0.0,1.0,1
VS4,mp-541155,15,-5.6753620415,2.4322466278602928,-1.0801889339999995,489.3765099883814,0.9528000000000004,7.306090181142031,8.621207516219581,1.0,1.0,-1
As2S3(NF6)2,mp-541204,5,-4.674654929210528,2.78933015832847,-1.901562698074473,597.7381158516039,2.242,7.699532975301357,10.890525932612116,0.0,1.0,-1
SbBr5F6,mp-541259,15,-3.244838854583333,3.172592487807427,-1.508427626011667,665.0027401823622,1.7464,7.475758732784254,12.612942767288091,0.0,1.0,-1
As2Se2S(NF6)2,mp-541335,5,-4.605529582894737,3.200700234182985,-1.8300245506238155,618.2312389980026,2.2391,7.793208318646821,10.942768897434778,0.0,1.0,-1
Pt(OF3)2,mp-541474,206,-3.8596555030555564,4.323770562572976,-1.1709711196822228,523.9550960036087,0.017999999999999794,8.796407087725763,8.796407087725763,0.0,1.0,-1
Tl(MoO3)3,mp-541775,12,-6.737899573846152,5.314882101557791,-1.9289325516346143,397.53712193511876,0.9766999999999996,6.578717663548117,8.64807497520743,2.0,1.0,-1
Ti(AlBr4)2,mp-541826,15,-3.656487840909091,3.018289368145567,-1.0672100230303032,815.4039456610492,0.0,10.47470128043874,12.578017864625965,1.0,1.0,-1
TaTeCl9,mp-541877,2,-3.8770676318181816,2.9776246966402917,-1.4874551453945453,700.0181275941627,2.6483,6.673817999999999,11.76862770922957,1.0,1.0,-1
ZrBrN,mp-541912,166,-7.77849192,5.1151185487225534,-1.7327921341266677,120.20186785702029,1.7675999999999994,10.418425208327793,10.418425396896836,2.0,1.0,-1
Zn(InS2)2,mp-541937,160,-3.88834565,4.169268879786114,-0.9376212874999996,168.59418518077754,0.13580000000000014,12.83145211748152,12.831452213776664,2.0,1.0,-1
V2Se2O9,mp-541993,14,-6.3993146830769225,3.5950614360704427,-1.7834205050721164,746.0475451926955,2.1685000000000003,8.181693,10.723589328700582,2.0,1.0,-1
Sn(CO2)2,mp-542769,15,-7.2225324621428575,3.227162729820466,-1.5874188721428573,212.7451321416624,2.6316999999999995,6.02437092237231,8.50105546006565,1.0,1.0,-1
SnSO4,mp-542967,62,-6.033033615416668,3.9199495989459683,-1.9554963492708333,363.92130432610793,4.1877,5.417131,9.115902,2.0,1.0,1
Cr3O8,mp-545796,12,-6.835972122727273,2.7968170089442657,-1.6645661081818175,168.60799062352896,0.5084,5.260463811774015,6.8815069823909925,2.0,1.0,-1
SnO,mp-545820,64,-5.76414050125,5.840915176716952,-1.6365218393749998,153.1884744568246,0.7358000000000002,3.871203202282205,10.22196,2.0,1.0,-1
RuO4,mp-547094,15,-6.444656501,2.9835711460965326,-1.1932461949999995,183.74034672410232,2.3971,5.432166766890813,8.968438574999439,0.0,1.0,-1
NbI2O,mp-549720,5,-5.78494713,5.133429393733927,-1.4361981953125005,234.65871112440917,0.8428999999999998,7.604524159279197,8.281723285805015,2.0,1.0,-1
NbBr2O,mp-550070,5,-6.1168813725,4.452127673945019,-1.7116754753125,200.44785868792144,0.9306,7.095958343282745,7.624104879299668,2.0,1.0,-1
CoO2,mp-550206,166,-5.738129491666666,2.1501727086303326,-1.1629132474999997,140.45023406288226,0.0,2.8203465048325183,10.223085537890848,2.0,1.0,-1
Co2TeCl2O3,mp-550564,11,-4.865259235,4.3108176183426234,-1.2581798750337496,280.71315141730116,0.0,5.059813,8.528842890509592,2.0,1.0,-1
CoSb2Br2O3,mp-550763,2,-5.0538590059375,4.652824481842631,-1.3659627857812504,728.4226282798674,1.6289,8.562724691607809,10.289209314583019,2.0,1.0,-1
CoTeMoO6,mp-551806,18,-6.320089360000001,5.015987140621792,-1.7460610747222234,250.5841942568753,1.8488,5.116115134260663,9.185935017151714,2.0,1.0,-1
NbTlBr4O,mp-551826,5,-4.6577892371428575,4.928618689756621,-1.335456430178572,213.2369487162529,1.3074,7.258359079085367,7.840462681114234,1.0,1.0,-1
OsO4,mp-551905,5,-7.181972482000001,4.389479957096201,-1.5399732169999998,96.17423151129472,3.2855000000000003,4.926713778185618,5.24507824248676,0.0,1.0,1
SClO2F,mp-554012,29,-4.69087073725,1.8859124251772863,-1.7631263542649998,834.8176607665632,4.6795,7.979478,11.193833,0.0,1.0,1
ZrHg3(SCl3)2,mp-554183,14,-3.388160659166666,4.738675899448305,-1.3941750492341671,679.7090848171209,2.5687,6.784089999999999,13.28434328243986,2.0,1.0,-1
Sb3As2S14(IF8)3,mp-554195,2,-4.241338645652173,2.909295040790153,-1.8719399560284788,1027.7907245081765,1.8062,8.472305,13.465028064735884,0.0,1.0,-1
AsS3(NF3)2,mp-554289,2,-4.855634463333334,2.4317364356330002,-1.5634400313562502,427.63572648153536,0.6076999999999999,5.796764,9.631915865131193,0.0,1.0,-1
TiSCl6O,mp-554370,2,-4.240394817777778,1.9669470073097843,-1.6695889052520367,521.1369545574444,2.6221,6.6320956179804105,11.225150594083994,0.0,1.0,-1
PNClF,mp-554472,36,-5.52351553,1.9332001666229488,-1.5134757401003565,512.447183111716,5.0811,7.969073,8.153970460829559,0.0,1.0,1
AsSe(ClF2)3,mp-554706,14,-3.753042150909091,2.713970021718218,-1.8948709131148864,915.8910707815547,3.7144,7.893461999999999,12.202218872990107,0.0,1.0,1
RuO4,mp-554791,218,-6.44562299375,2.920827691487435,-1.1942126877499994,750.749383070429,2.4251,9.088628,9.088628,0.0,1.0,-1
MgP4(Cl5O3)2,mp-554819,2,-4.843501070714286,1.8349756399278263,-1.9260760194945576,1083.6205511150627,3.5985,10.135494,11.596869843581546,1.0,1.0,1
BrN(OF2)2,mp-555071,62,-4.0422769671875,2.69235538144886,-1.0719106921425006,498.1036437947886,2.3839,5.907057,14.224653,0.0,1.0,-1
SbS(BrF2)3,mp-555288,14,-3.708363559772728,3.258072618669816,-1.7959934207059094,1034.6842512016874,2.5783,8.363382000000001,12.696261697069495,0.0,1.0,-1
VP2Cl7O4,mp-555373,2,-4.8918559575,1.955660801857065,-1.7498490642830606,721.8274145883922,2.1144,8.41265,10.748077586499365,0.0,1.0,-1
TcO3F,mp-555390,14,-6.845194371,3.641817676539584,-1.9415610809879995,300.9302824080249,2.4587000000000003,5.262658999999998,9.517857276237178,2.0,1.0,-1
CdTeMoO6,mp-555560,113,-5.872881557777778,5.339739431143151,-1.7779008319444438,268.65188523356164,3.2184,5.361574,9.345559,2.0,1.0,1
Nb2Te4Cl10O,mp-555641,2,-4.300360491764706,3.3667279070310734,-1.38506701905,526.1390523926643,1.2099,6.863616,9.236116837574707,1.0,1.0,-1
AlSCl7,mp-555805,7,-3.1246588472222223,1.8186114156720727,-1.3473785656605557,561.0288381495366,2.5238,6.452506,13.607258448600733,0.0,1.0,-1
Nb2Tl5S4Cl9,mp-555900,71,-4.27527658,4.881762499039028,-1.4159019180919998,562.973348884251,1.7231999999999998,10.023360557384633,10.023360557384633,1.0,1.0,-1
OsCl4O,mp-556006,14,-4.440551306666666,3.1604174628839043,-1.025817335715,731.4683560402632,1.0652,6.008732,12.731207346404345,0.0,1.0,-1
CO2,mp-556034,60,-7.671109881666666,1.5191351397899604,-1.7650726691666658,192.42394474960759,6.6883,4.915284,7.232385000000002,0.0,1.0,1
KAs4ClO6,mp-556233,191,-5.6150843608333325,3.4581215185665584,-1.7421913311466668,225.7994952766037,3.1587,5.332715043459383,9.168444,2.0,1.0,1
AlSCl3O2,mp-556418,2,-4.70447992,1.804394078182705,-1.9228442679150004,363.33262242999115,3.9834,6.486707,8.082951406459522,0.0,1.0,1
NClOF4,mp-556500,108,-3.822471665,2.247697071579463,-1.0890160695214288,209.0030357301605,1.6461,7.019429494595912,7.019429494595912,0.0,1.0,-1
FeWClO4,mp-556603,129,-6.5339133164285705,4.3678696254124905,-1.8795358590371427,257.8593048649655,1.2931,5.576939,6.799759,2.0,1.0,-1
AsS(ClF2)3,mp-556705,19,-3.761660838181818,2.4566221903414527,-1.9055733831859087,885.0432922473562,3.7779,8.076032000000001,12.268798,0.0,1.0,1
Re2SCl12,mp-556726,11,-3.837913663333333,3.0384222904086764,-0.9440299328163332,907.1196481197348,0.6747,8.727585000000001,11.39863,0.0,1.0,-1
ClF3,mp-556767,62,-2.50570386875,2.262550947815069,-1.1268285242075,271.39961436231516,2.6336,4.698805,9.209027,0.0,1.0,-1
RuCl(OF3)2,mp-556834,13,-4.3775059139999986,2.9347523421471533,-1.6232186767900003,319.70164571381736,0.5673000000000001,5.843416,10.417071716878981,0.0,1.0,-1
NaW2(Br3O)2,mp-557030,12,-4.365274214545455,4.830029967017317,-1.016020093257576,310.13471204279944,0.0,9.21203627885024,11.270479292405007,2.0,1.0,-1
CuClF10,mp-557055,14,-2.724662604166667,2.6049163454854716,-1.0947826887633336,368.4322646692028,0.0,5.1483870000000005,9.312312,0.0,1.0,-1
VCuSe2O7,mp-557097,14,-5.806927651590909,4.021543061715089,-1.4239645628125004,634.8972891094525,0.0,8.286705,8.989889,2.0,1.0,-1
Cu3Se2(ClO3)2,mp-557136,12,-4.693362793846154,4.055990019094798,-1.0571214299005771,211.03161680764904,0.0,5.504088266165979,7.813976174594147,2.0,1.0,-1
GeClO2F5,mp-557432,20,-4.284554600833333,2.9771993068014795,-1.8988923299122225,524.4739369670099,1.7408,8.531463916043952,9.042188,1.0,1.0,-1
KCrIO6,mp-557449,14,-5.460694972777778,3.3488604252016523,-1.488644767833333,622.7807031178,2.6645000000000003,4.872166,14.307461699875695,2.0,1.0,-1
MoSeCl7O,mp-557464,2,-3.5352185045,2.412262153694383,-1.1519008231413743,604.4894839236944,2.442,8.171544,9.985084014551457,0.0,1.0,-1
Te2SO7,mp-557480,31,-5.653225074,4.3405720290837,-1.7053000731875003,305.4842319029213,2.8813000000000004,5.000247,8.796154,2.0,1.0,-1
PCl2OF,mp-557522,14,-4.720353596000001,1.7909295121203346,-2.002912912506287,507.6482191341915,5.0026,5.760865,10.031447796303032,0.0,1.0,1
TeAs(BrF2)3,mp-557570,14,-3.7063078334090913,3.484638271191563,-1.7757169463309097,1060.2325312199878,3.083,8.176817999999999,12.6471662844606,0.0,1.0,1
SbAs3(Se2F3)2,mp-557606,11,-4.368056600357144,3.7196882469149,-1.467106374036786,693.1592571552948,2.0726,6.452697,10.77324509955682,0.0,1.0,-1
AsS(IF3)2,mp-557628,15,-3.79721791025,3.4870448481972525,-1.8268744797765,904.3768208858504,1.197,8.216467719294041,14.17221847591523,0.0,1.0,-1
Ti3O,mp-557812,149,-8.551409775833333,4.834658283147383,-1.5683743961458336,328.90353409522345,0.0,5.156308244446991,14.28434,2.0,1.0,-1
BCl(OF2)2,mp-557856,9,-4.8049699975,2.196156888650325,-2.041623219960833,233.27003735638905,1.9708,5.213602823670404,9.765616938147073,0.0,1.0,-1
InTeClO3,mp-557992,14,-4.994852073333333,5.074404488011393,-1.6805467328349994,426.5474212630197,3.1451,7.031733,8.643285252831241,2.0,1.0,1
TiS2,mp-558110,166,-6.6527548833333325,2.1452723183333924,-1.7055976331944451,86.69080948496072,0.01930000000000009,8.832788585725911,8.832788725733792,2.0,1.0,-1
Ti4S8Cl6O,mp-558135,15,-5.545721604210527,2.1284887918021043,-1.8017922183759647,1055.8625045216163,1.6005,9.826627702463648,13.38672078676675,0.0,1.0,-1
As(IF3)2,mp-558244,12,-3.738234368333333,3.8068023306432974,-1.9348516530155555,386.2325303504757,0.5446,6.033233272003495,8.162586763735256,0.0,1.0,-1
IClOF,mp-558330,14,-3.2119196359375,3.4165324710853526,-1.1008998373625,767.3654945103058,2.0482,7.276021000000001,13.08189147489399,1.0,1.0,-1
AlAs3S5Cl4,mp-558360,11,-4.147079898461539,2.3499643865811235,-1.0622118764357695,782.773498471812,2.3221000000000003,6.627910000000001,11.95371567841531,0.0,1.0,-1
AsS(BrF2)3,mp-558466,14,-3.640254905227273,3.1310442450960214,-1.679692296615,977.2996534729924,2.4875000000000003,8.273506,12.392089366565427,0.0,1.0,-1
TiTlPS5,mp-558747,2,-5.260178123125,3.4671219589401225,-1.1307555990662204,424.86566906342,1.1771999999999998,6.746944,9.40704604455942,1.0,1.0,-1
ZnTeMoO6,mp-558830,18,-5.944334912222222,5.0860037855715925,-1.8119259808333328,251.3631142081916,3.1571,5.101379,9.205844,2.0,1.0,1
AsC3N3F8,mp-558853,15,-6.034253522333334,2.3538356180866664,-1.5301683131106665,860.5523561765688,4.015,8.407768429402001,13.887804347166258,0.0,1.0,1
SbSe6IF6,mp-559000,13,-3.901969476785714,3.8618063892054373,-1.3911277965144642,719.300482429558,1.5426,7.258564999999999,12.019051245729544,1.0,1.0,-1
TlMo2Cl7O2,mp-559041,2,-4.318687416666667,3.4148883214510115,-1.4637518487766676,657.8508476751999,2.5434,7.267019,10.281454244847904,0.0,1.0,-1
IN2O4F5,mp-559119,2,-4.8207511570833335,2.808366778323176,-1.361220362559166,371.21621564860186,1.487,4.994167,9.957869733839114,0.0,1.0,-1
Cr2HgO7,mp-559125,145,-5.927432447999999,4.2726329941197925,-1.3970890893749992,485.70334328137255,2.0146,7.6177930258975275,9.66456,1.0,1.0,-1
PBrNF,mp-559366,36,-5.3413599862500005,2.529185978005488,-1.2355513055353573,566.7984578991443,4.2508,8.289664,8.352425119620827,0.0,1.0,1
IOF3,mp-559377,19,-3.675113606,3.727044399719165,-1.6688479089640005,356.2503640452418,3.6374,5.776728,10.625604,1.0,1.0,1
SbTeClO3,mp-559379,62,-5.1030347704166665,4.720875309350301,-1.5591765115849998,468.2572304398208,3.1656000000000004,5.511814,11.674373,2.0,1.0,1
KLiO,mp-559612,64,-4.0691901725,2.2256658373704385,-1.6475277450277777,185.1449274394037,2.3844,5.464324723070271,6.499871,2.0,1.0,-1
NaB(CO2)4,mp-559618,63,-7.47809899142857,1.9839230066233544,-1.8447782387499991,351.26914997549187,3.5546,6.69107356846605,8.039528,2.0,1.0,1
Ta4S9Br8,mp-559724,107,-5.480139585714285,4.006163098043026,-1.1094999837202388,684.5853259267259,1.3014,10.229345291848253,10.229345291848253,0.0,1.0,-1
KHg2S(ClO)3,mp-559765,36,-3.709081515,4.270651906201277,-1.5401516269654998,487.3544770982825,2.7239999999999998,7.034738000000001,11.614185576211964,2.0,1.0,-1
V4S9Br4,mp-559911,129,-5.454973719117646,3.037171367436284,-1.0937831754779417,887.8675327616579,0.6585000000000001,7.33443,11.002488,2.0,1.0,-1
AlS2NCl4,mp-559963,62,-4.1778284778125,1.7219487414084091,-1.2203995205212497,952.4959670629527,2.1062000000000003,7.588030000000002,11.478057000000002,0.0,1.0,-1
PNF2,mp-560008,36,-6.13043704,2.1955089938164303,-2.0787224608328567,125.5171317503373,5.6193,4.989135,5.299101973095536,1.0,1.0,1
AuS3(O3F)3,mp-560021,14,-5.2960300725,3.0454928546877267,-1.7856868999496869,1077.7338291456067,1.5561,9.675346,11.14127346643538,0.0,1.0,-1
AsS3(NF3)2,mp-560042,14,-4.867678659166667,2.4940375344537653,-1.5754842271895833,833.9067579360162,1.4827,8.503378999999999,11.417279819696152,0.0,1.0,-1
Ta2Te4Br10O,mp-560333,2,-4.2138899605882365,4.557288970243012,-0.8666140871323532,614.8141954400478,1.0536,7.455005,9.681925657570606,1.0,1.0,-1
SbCl(OF3)2,mp-560354,59,-4.21738589,3.1237520924323663,-1.9776374942900001,322.35536954494586,1.928,5.841458,7.652413,0.0,1.0,-1
IrF6,mp-560553,62,-4.332280306785714,4.587660938059625,-1.8520329892342853,443.3364966848858,0.7829000000000002,5.134388,9.749503,0.0,1.0,-1
SbS(BrF2)3,mp-560639,19,-3.707102683636364,3.2438613486317767,-1.7947325445695457,1039.2171753058992,2.6483,8.493333999999999,12.779312,0.0,1.0,-1
SbCl3F2,mp-560748,79,-3.549579655,2.6768368540282537,-1.7609705820266666,660.3251776094952,1.7137,10.137864885318407,10.137864885318407,0.0,1.0,-1
Nb2TlPS10,mp-560847,7,-5.547758145357144,3.4724047429654594,-1.0686547460586746,709.4914826992627,1.4255,7.258423,13.18584424902558,1.0,1.0,-1
SeO2,mp-560882,26,-5.149899676666666,3.818278889972912,-1.154152204947917,193.0203921635103,3.4647,4.662733,7.935917999999999,1.0,1.0,1
SnP2Cl8O3,mp-560891,2,-4.359678052142857,2.223131992710024,-1.6736817808552042,765.281141667257,3.0751,8.980355,11.0415136010077,0.0,1.0,1
Zn2SeCl2O3,mp-561112,14,-4.1817747203125,3.4314826841941075,-1.5242625881392189,636.2143526004294,4.1560000000000015,7.81274,10.444938,2.0,1.0,1
CuGeO3,mp-561216,64,-5.9048465085,4.710947120363704,-1.6130003222499991,1038.7552285727384,0.0,8.76871,11.92274,2.0,1.0,-1
TlCr3O8,mp-561221,12,-6.73000034875,4.083329456539675,-1.7927404204166668,397.20143028461473,1.9409,5.28234910748504,15.985338302137524,2.0,1.0,-1
SbSe(BrF2)3,mp-561328,19,-3.7049098379545455,3.454843247439196,-1.7904559160894318,1065.9124255931208,2.5985,8.524942999999999,12.857966,0.0,1.0,-1
TcSO6F,mp-561392,14,-6.416360127222222,2.901912410534601,-1.8910098246461104,560.9147614375325,2.73,7.317627000000001,9.254967556903482,2.0,1.0,-1