pretty_formula,task_id,spacegroup.number,final_energy_per_atom,density,formation_energy_per_atom,volume,band_gap,min_abc,max_abc,Dimension,Dim,is_uv
B5PH4Cl,mp-758806,61,-5.167112187386363,1.3747676800356254,-0.3468356112177056,2406.33608838521,4.2176,12.672293,13.947524,0.0,1.0,1
As2HPbF13,mp-758957,60,-4.499842029485294,4.105126239974451,-2.45644366002,1957.8965934708167,4.5547,10.95541,15.99284,1.0,1.0,1
FeB18H32(C4S)2,mp-758974,18,-5.368795401393443,1.2432698776894944,-0.2355027251162287,1183.1281710119392,2.0283,8.239326,13.420809,0.0,1.0,-1
H18RuC6(SCl)3,mp-759409,33,-4.880814872903225,1.5649116426988798,-0.4572388635262886,1671.5882035997342,0.3309,8.975158,17.127225,0.0,1.0,-1
P(H3C)3,mp-762352,62,-5.065790829999999,0.9301000086400892,-0.2772325289347245,1086.5873698723246,4.1823,5.325883,21.978091,0.0,1.0,1
Ba2YI7,mp-768426,14,-3.678398182250002,3.7819219845910372,-1.5811480744166673,2198.6853812112204,2.638,9.454081,17.733072684487286,2.0,1.0,-1
S,mp-77,70,-4.1354432690625,1.4696555599456038,0.0010065978125002317,1159.3505117076488,2.7125,9.619602558391485,14.72191034799224,0.0,1.0,-1
Co(NO3)4,mp-773130,2,-6.030109873529412,1.9169232087418864,-0.8540985693835289,1063.5942125904803,0.1349999999999998,7.4256160000000015,12.847536067398838,0.0,1.0,-1
Bi3(TeCl5)2,mp-773980,2,-3.1986486503333333,3.933552332829228,-1.165634346506667,1044.1151744698318,1.1818,7.0139809999999985,15.215483617359714,2.0,1.0,-1
B10H13,mp-776402,61,-4.902160612826087,0.9332791798062576,-0.1669217299446374,1725.3511408251034,3.2060000000000004,10.729184,14.805902,0.0,1.0,1
Mn5(SeO3)8,mp-776755,2,-5.9475398577027025,3.7544762029501655,-1.4267954072115097,1141.4035627892426,0.7582,8.138689,14.288393758319232,2.0,1.0,-1
Mg4N6O19,mp-779162,143,-6.1123442431034505,1.7918658912420309,-1.4646339937251731,1349.0539554758434,3.2343,7.086023,14.826821558855322,0.0,1.0,1
P2H9(CBr)3,mp-779221,14,-4.612057873823528,2.28286789810102,-0.34292120351310856,1008.9302991481584,2.5267000000000004,7.3021449999999986,17.161433,0.0,1.0,-1
Rb(BH)5,mp-780534,14,-4.956412012159091,1.6387254348467897,-0.35857780910757564,1171.8945649381747,4.0007,7.281787,15.29525703194876,2.0,1.0,1
Mn(NO3)4,mp-780939,2,-6.207793194117648,1.8362376507282585,-0.8996325650079501,1095.8777690853108,0.4176,7.6832410000000015,12.79824519381423,0.0,1.0,-1
S,mp-83,14,-4.0984271325,1.6086536116725931,0.03802273437499997,1853.556507077604,2.5623,6.67754,22.92695600776492,0.0,1.0,-1
V2O5,mp-849565,13,-7.416282734183673,2.811388185680432,-2.2688342365051017,1503.9772371532379,2.314,4.910474,21.059916779298273,2.0,1.0,-1
KV12O30,mp-849579,192,-7.293479875116278,2.3965286184728263,-2.239916250709303,1566.4635195410474,0.3667,10.876195971820662,15.29099,1.0,1.0,-1
B6H10C2SBr,mp-849797,19,-5.151832270187501,1.5013453068178624,-0.3499725179037497,1866.4174582830587,4.5168,9.748286,19.355303,0.0,1.0,1
B12H21C4S2I,mp-849805,14,-5.1585411144375,1.4881142467214188,-0.31943395724425017,1740.6469995660761,4.2777,9.832462,14.10153,0.0,1.0,1
NbC2NCl8,mp-864879,36,-4.856762919583333,2.1824605444098464,-0.9785840494549998,630.8389429477273,2.3156,6.162043238310244,16.756974,0.0,1.0,-1
Cd2TeCl2O3,mp-950214,56,-4.04184027390625,4.060727690473788,-1.5126179226899998,1541.9020980858884,3.3714,8.370792999999999,16.058112,2.0,1.0,1
LiS4,mp-995393,1,-3.916750536,0.22277547787999635,-0.7565740691666661,2015.540888789589,2.1585,12.210871,12.929439069616516,0.0,1.0,-1
ReBiO5,mvc-7493,61,-7.275981775178572,4.729671293761539,-1.9098547982142875,1334.6589410213908,2.9632,6.3048,16.923317,2.0,1.0,-1