pretty_formula,task_id,spacegroup.number,final_energy_per_atom,density,formation_energy_per_atom,volume,band_gap,min_abc,max_abc,Dimension,Dim,is_uv
Hg,mp-975272,63,-0.302625715,10.589517019025337,0.0010546499999999905,62.90891846547152,0.09339999999999997,3.6065439704555113,5.644127,1.0,1.0,-1
MgPt5,mp-977056,8,-5.65346397,17.605404155582132,-0.3276608699999996,94.29391132894405,0.0,5.412684677033385,6.727402773520996,2.0,1.0,-1
TiAu,mp-998972,129,-6.0106000025,11.810856228483624,-0.4259132241666671,68.84440861436235,0.0,3.341711,6.164969,2.0,1.0,-1