pretty_formula,task_id,spacegroup.number,final_energy_per_atom,density,formation_energy_per_atom,volume,band_gap,min_abc,max_abc,Dimension,Dim,is_uv
Nb3SBr7,mp-29057,156,-5.172273141818182,4.6358534247548775,-1.0599648902840906,311.66973336076217,0.7444000000000002,6.9348839999999985,7.203812696208932,2.0,1.0,-1
CrHg5O6,mp-29112,15,-3.8276109125,8.21541501750424,-0.9415740702083332,465.2680310339013,1.1978,6.849864025452257,8.283474900683165,1.0,1.0,-1
Bi(TeBr2)2,mp-29127,2,-2.874231495,4.737111300448586,-0.4850397335714288,549.5013563802863,1.1,7.514458999999999,9.363471891201147,2.0,1.0,-1
OsCl2O,mp-29133,71,-5.6373032075,5.372875919183909,-1.1421277394424996,85.65136536927822,0.0,6.85014310319602,6.85014310319602,2.0,1.0,-1
VHgO3,mp-29188,2,-5.88341449,6.2549579277942575,-1.7948979217500003,159.0356879130516,2.2382,3.650004,8.794358635002158,1.0,1.0,-1
Te4MoBr,mp-29190,2,-4.434061496666667,5.638733399494949,-0.2580992816666665,404.1811841368191,0.9629000000000004,6.903042,8.372166514366159,2.0,1.0,-1
InTeI,mp-29234,14,-2.903928908333333,4.6906925687373,-0.4309298166666664,522.9712931481207,1.7076,7.842027000000002,8.73142586907482,2.0,1.0,-1
InTeBr,mp-29236,14,-3.083065793333333,4.644534251969955,-0.5724287266666664,460.95323577181574,1.7355999999999998,7.740100999999999,8.552513147932894,2.0,1.0,-1
Tl3BS3,mp-29337,11,-4.160711447142857,6.199362196409933,-0.7059514026488094,385.7967862193956,1.4384,5.7898510000000005,9.990775,0.0,1.0,-1
Hg2TeO3,mp-29510,28,-3.7342011308333336,7.096507766975495,-0.986258119791667,269.92508577819063,2.272,3.814998,11.709466,0.0,1.0,-1
Tl2WCl6,mp-29556,225,-4.1269032077777785,5.236190463807357,-1.3263989532844451,255.3904348662015,0.0,7.12152836598451,7.12152836598451,0.0,1.0,-1
Bi3ClO4,mp-29558,15,-5.40761304125,7.65289732718887,-1.6692860685325002,315.2275301728024,2.451,5.792333600279767,10.222507580360556,2.0,1.0,-1
Ag(TeMo)6,mp-29607,12,-6.899942443076923,6.797392360765508,-0.2256178458974351,354.00351342369964,0.0,9.547293881487306,9.699758110632713,2.0,1.0,-1
TaSe3,mp-29652,11,-6.239687043125,7.3918988068673634,-0.6533090273828126,375.4486017639047,0.0,3.519161,10.89654300147712,2.0,1.0,-1
Bi2Te2Se,mp-29666,166,-3.8146214919999997,7.096959354542384,-0.30210510046875,175.98043173279194,0.5441999999999996,11.045151392402733,11.045151903711645,2.0,1.0,-1
TlClO3,mp-29738,160,-4.120622344,5.072115205708987,-0.8501222714020003,94.23296052646893,4.4344,4.574927649682124,4.574928330334804,0.0,1.0,1
CuAgTe2,mp-2977,25,-3.3069196875,6.887896844095928,-0.0023285541666671072,102.8484545429176,0.0,3.149479,7.61207,2.0,1.0,-1
TlBrO3,mp-29798,160,-4.000538808,5.629236805581325,-0.6534236227500003,98.019158381761,3.659,4.63004023988615,4.630040771099645,0.0,1.0,1
Tl2PdCl4,mp-29889,123,-3.3009030185714288,4.78329558528814,-1.1696756361485716,228.0795369111165,1.4414,4.336921,7.25191,0.0,1.0,-1
Y2B3C2,mp-29896,65,-7.850752287142857,4.565790457333852,-0.5043695815476192,85.2005834838902,0.0,3.652185,7.076246095013514,2.0,1.0,-1
TlBSe3,mp-29959,9,-4.137438233,5.752470198254597,-0.231682396239583,260.99641033642206,1.0288999999999997,6.239360313770393,7.2700119117669955,1.0,1.0,-1
TlIO4,mp-30032,88,-4.312474258333333,5.509519730766773,-0.8344196799999999,238.27369041805198,2.0856,7.865250008654715,7.865250008654715,0.0,1.0,-1
CoBr2,mp-30033,164,-3.78085924,4.346426649084727,-0.3201356149999999,83.56940749218836,0.11960000000000005,3.7378857986922234,6.906605,2.0,1.0,-1
TlSbO3,mp-30058,148,-5.569104881,6.525613851104053,-1.7235747557499999,190.4116888807974,2.4362000000000004,8.146423186665237,8.146423632085494,2.0,1.0,-1
HgAsO3,mp-30284,162,-4.914693703999999,6.488267456776308,-1.37473466875,165.59140476458117,1.6293,4.9587195754276125,7.776211,2.0,1.0,-1
HfBrN,mp-30302,166,-8.33988875,7.685253372876929,-1.8243595574600004,117.71427230117693,2.1768,10.506259949927948,10.506260084453363,2.0,1.0,-1
Rb4Sn2Au7,mp-30416,166,-3.0356725323076925,7.842930186819188,-0.35425324153846177,414.5683270868065,0.0,10.715068466226896,10.715068557642736,2.0,1.0,-1
TlClO4,mp-30530,216,-4.243771656666667,4.276229672620256,-0.8107440180433331,117.98432248338251,4.6461000000000015,5.505284496731481,5.505284496731481,0.0,1.0,1
Tl2ZnI4,mp-30532,4,-2.3814974692857143,5.4123906372291435,-0.6559117507142856,602.4348714444586,3.0119,7.95845,9.612943593270481,1.0,1.0,1
Zr3Co,mp-30619,63,-8.3985672875,6.915075692701918,-0.2107123662500019,159.73908156479197,0.0,5.640531852090014,9.054345,1.0,1.0,-1
Hg3SO6,mp-30890,144,-4.250973819333334,7.71350563852146,-1.265171441895833,471.3473776485137,0.5752,7.176333523649664,10.568302,2.0,1.0,-1
Ta3SBr7,mp-31015,8,-5.585080557272726,6.084557393628701,-0.9937343266477282,309.54498900138964,0.8622999999999998,7.164225272280738,9.272735529424422,2.0,1.0,-1
Zr3Fe,mp-31205,63,-8.63774837,6.8088045429079305,-0.10947217750000247,160.72596831370996,0.0,5.699146232399553,9.067651,1.0,1.0,-1
AlSiTe3,mp-31220,162,-3.988123898,4.5728811935382785,-0.2679653699999996,318.0031550345869,1.3430999999999995,6.912802741896372,7.684091,2.0,1.0,-1
Bi2TeSe2,mp-31406,166,-3.88894257,6.978952707652787,-0.30590406893749955,167.38290112240983,0.9579999999999996,10.850194923915883,10.850195548662246,2.0,1.0,-1
ZrGeTe,mp-3208,129,-6.22085743,7.1176451258794895,-0.7828476249999999,135.99648477773712,0.0,3.823963,9.300372,2.0,1.0,-1
TlS,mp-322,140,-3.45348315875,7.075922473756631,-0.5361617353125001,221.95361288219848,0.8068,6.631465561491819,6.631465561491819,1.0,1.0,-1
CoO2,mp-32686,164,-5.736544221666668,4.4904666129397715,-1.1613279774999998,67.2518662832339,0.0,2.817453000262649,4.941065806592843,2.0,1.0,-1
AuCl,mp-32780,141,-2.77633425125,6.755789083321633,-0.51246799288,228.5102565558944,2.0772,6.724642956992736,6.724642956992736,1.0,1.0,-1
HfTe2,mp-32887,164,-6.237331176666667,6.750964479584526,-0.8227342733333339,106.6750076928378,0.0,4.018260659035946,7.628794,2.0,1.0,-1
BiTeBr,mp-33723,156,-3.3934604633333336,6.081527381617852,-0.5033732033333339,113.71955981319277,1.2970000000000002,4.357900773228895,6.914327,2.0,1.0,-1
Tl(MoSe)3,mp-3411,176,-6.9698076464285705,7.2372485555748085,-0.4860481460044639,334.56673296734436,0.3883000000000001,4.528686,9.236128449809476,1.0,1.0,-1
Bi2Te3,mp-34202,166,-3.67610408,7.468816518765769,-0.2341097980000001,178.032836669765,0.3861000000000008,10.696680564869505,10.696680962397354,2.0,1.0,-1
Sb2Te2Se,mp-3525,166,-3.79851413,5.922186989628313,-0.1904109664687504,161.97735898469037,0.1307999999999998,10.683812054814515,10.683812683608787,2.0,1.0,-1
CrSiTe3,mp-3779,148,-5.087398954999999,4.994812762430259,-0.185746099,307.77248980853926,0.0,8.564678766268003,8.564678991437566,2.0,1.0,-1
TlGaTe2,mp-3785,140,-3.28849444125,6.757657625820657,-0.3694068556249999,260.1297189100374,0.5813999999999999,7.0380358012162745,7.0380358012162745,1.0,1.0,-1
TlFeS2,mp-3849,12,-5.1470815225,5.837664363553149,-0.7026726240625001,184.52915247704757,0.0,6.504704662838582,6.844236682891233,2.0,1.0,-1
Nb2CS2,mp-4384,166,-8.394158405999999,4.889648234296121,-1.1190843032499995,88.96017323087814,0.0,9.716859404661262,9.716859535440962,2.0,1.0,-1
TlNO2,mp-4453,152,-5.5758320700000015,5.846630846934112,-0.8744680437200003,213.34357946874138,1.6405999999999998,5.703384492302795,7.573274,0.0,1.0,-1
Tl(CoSe)2,mp-4475,139,-4.938154008,7.8388173819244304,-0.22413170293750045,101.71694147140137,0.0,7.338303888046679,7.338303888046679,2.0,1.0,-1
Ag2CO3,mp-4691,11,-5.7061117075,5.585939035639512,-1.101296855347222,163.94229874688034,0.4754,3.357365,9.781725,2.0,1.0,-1
Hg3(BO3)2,mp-4710,167,-5.2868933700000005,7.015138509683727,-1.6738190564393938,340.56990909299185,2.6816,7.097131364376807,7.0971316175667045,2.0,1.0,-1
Te3As2,mp-484,12,-3.764511617,5.742207915849347,-0.014883696999999784,308.060890556594,0.5811000000000002,7.7717849640756915,10.14114142350007,2.0,1.0,-1
ZrBr,mp-504594,166,-6.0962828575,5.425263775225613,-1.0039692725000011,104.75609709034195,0.0,9.893889147476132,9.89388951699482,2.0,1.0,-1
FeS,mp-505531,129,-6.8096504925,4.1403373626812,-0.8381541190625006,70.51502163112309,0.0,3.5955550000000005,5.454435,2.0,1.0,-1
Pb2CO4,mp-505702,19,-6.533792451071428,6.870072634664845,-1.7288300632142852,474.13888268132996,3.4174999999999995,5.252644,9.502662,1.0,1.0,1
Pb3SeO5,mp-510293,36,-5.471622902777778,7.340013468822857,-1.4869362326215283,353.1724833240566,2.4633000000000003,5.898421,7.739765553496113,2.0,1.0,-1
Fe3C,mp-510623,62,-8.603551238125,7.8335255608753664,0.055646096874999884,152.23931894937348,0.0,4.490844999999998,6.739307000000001,2.0,1.0,-1
Cs4Sn2Au7,mp-510696,166,-3.0204191392307687,8.276083561163004,-0.365194217824934,430.94281461531585,0.0,10.868491780723671,10.868492079559012,2.0,1.0,-1
TiI4,mp-541013,15,-3.526296582,4.366869075159257,-0.7279880866666666,422.4556900011817,1.1083000000000005,7.005263403949419,8.259616239458405,1.0,1.0,-1
HgNO2,mp-541067,14,-4.8563201175,5.275218242335571,-0.66944924497,310.4944232346791,2.2563,4.661167,10.74107,0.0,1.0,-1
Nb2Se9,mp-541106,2,-5.208600380454545,4.62052664042187,-0.5117082550994315,644.3398968068625,0.8003999999999998,8.525162,8.840560471077668,1.0,1.0,-1
Tl4V2O7,mp-541368,164,-5.982877820769232,6.709966261905043,-1.831333025288462,255.24717307204202,2.6163,6.094112168435366,7.936142,2.0,1.0,-1
ReSe2,mp-541582,2,-6.878273383333332,8.378113152665701,-0.3994900032291671,272.82339923520453,1.2357999999999998,6.669910000000002,7.199982139513542,2.0,1.0,-1
AuCl2,mp-541656,2,-2.57422812,4.94910132083456,-0.6470336221733334,359.51000948187965,0.9647,7.150529,7.3505279560788015,0.0,1.0,-1
Nb(SeBr)2,mp-541667,2,-4.8348135580000005,4.7082303699938794,-0.7614173429375001,289.6521098138008,1.0469,6.8183289999999985,7.921210219961657,2.0,1.0,-1
Bi4RuI2,mp-541771,87,-4.197033925,7.398257647953588,-0.21381219285714284,534.5504066745584,0.4790000000000001,9.46095548984652,9.46095548984652,1.0,1.0,-1
Bi4RuBr2,mp-541772,12,-4.332230127857144,7.69849635227304,-0.3167472742857146,473.15176904474515,0.5697000000000001,8.893710777007367,11.060489074624684,1.0,1.0,-1
Bi2Se3,mp-541837,166,-4.03978233,7.0560723076736975,-0.3862217194062495,154.10680097779445,0.5434000000000001,10.421668506927766,10.421668910600836,2.0,1.0,-1
GaTe,mp-542812,12,-3.446352965833333,5.0078778220838185,-0.3606547495833332,392.57653067386804,1.0354,9.346433608814008,10.824104182712073,2.0,1.0,-1
Tl2CO3,mp-543045,12,-5.951967344166667,6.638152969322487,-1.5041201664583337,234.52910314430318,3.0085999999999995,7.070536281165099,7.728760900633037,2.0,1.0,1
CuBiTeO,mp-545369,129,-4.58192461375,8.706890946338522,-0.7373727690625005,158.72328062424143,0.0,4.061108,9.62391,2.0,1.0,-1
PdSeO3,mp-545482,11,-5.324629246000001,4.7021910628342845,-1.0420713072187495,164.83108117652668,1.0809,4.030541,6.5654759999999985,2.0,1.0,-1
CoBiO3,mp-545522,99,-5.892579522,7.652909533537186,-1.5203098197500005,137.0939705737687,0.0,4.87235500000041,5.304442129335564,2.0,1.0,-1
SnO,mp-545552,31,-5.6935326675,5.566361254993613,-1.5659140056250005,80.3721537611567,1.4791,3.355005,5.674104,2.0,1.0,-1
PdSeO3,mp-546684,12,-5.314942663,4.737689201829121,-1.0323847242187498,163.59604941715872,0.7734000000000003,5.077716969310617,7.268165607779242,2.0,1.0,-1
HgPb2(ClO)2,mp-546862,12,-4.031371607142857,7.465152115547623,-1.3559419791457141,159.6876182370391,2.3759,6.315729165863036,7.911084546093601,2.0,1.0,-1
Tl(CoS)2,mp-5501,139,-5.3258314900000014,7.0259899168050834,-0.6209778292500004,91.31788934840236,0.0,7.066514225000117,7.066514225000117,2.0,1.0,-1
CdBiClO2,mp-550553,11,-4.519208127000001,6.374422445951033,-1.6075869301519998,202.58755357260398,2.9339999999999997,4.246512999999998,7.660676998345316,2.0,1.0,-1
PbO,mp-550714,29,-5.435354845,7.88572866132896,-1.4561985756249998,188.00105317304616,2.2424000000000004,5.4517,5.95512,2.0,1.0,-1
TiZn(BiO3)2,mp-550998,99,-6.442658353000001,7.420403252067177,-2.2017286470833333,140.3623491996041,1.8587,4.995445,5.3007610000000005,2.0,1.0,-1
Ti6O,mp-554098,163,-8.29296872142857,4.6812320960245,-0.9188804973214276,215.10480976808984,0.0,5.116793489104089,9.486886,0.0,1.0,-1
CuBiSCl2,mp-554238,63,-3.733691331,5.558120087502725,-0.9397047709290004,224.3665456270771,0.6787999999999998,6.8231984185631,8.484032000000001,2.0,1.0,-1
Hg2Mo2O7,mp-554533,2,-5.715753443181819,6.6238457731917135,-1.6288166185227282,353.5024033232517,2.2049,7.20598,8.369105363254308,2.0,1.0,-1
Hg3PO4,mp-554914,14,-4.436517318125,7.640075866014423,-1.5231437141964288,605.7354776088861,2.2241,8.076242,10.22677339710551,2.0,1.0,-1
Te2Pb3(ClO3)2,mp-554952,12,-5.0841988911538465,6.714827447343148,-1.591411365309231,516.2034684271501,2.6027000000000005,8.859992890722319,11.10909969079425,2.0,1.0,-1
Ta2Tl3Cu3S8,mp-554994,5,-5.42319356625,5.766734454878364,-0.993065244687501,409.52548735683314,1.9486000000000003,7.44226536769363,10.301471824045,1.0,1.0,-1
TaS2,mp-555037,166,-7.733602056666666,6.096438133156916,-1.4656829354166672,66.75396111807504,0.0,7.0443972215639565,7.044397878990438,2.0,1.0,-1
Hg3AsS4Br,mp-555074,186,-2.839417871111112,5.859421540863241,-0.4950794813888888,501.52981206513863,1.5311,7.587209477052878,10.060092,2.0,1.0,-1
Hg2SeO3,mp-555918,36,-3.7357481275,6.870398020335731,-0.9290366918489584,510.59290077109597,2.3265,5.267545,10.251621182863762,1.0,1.0,-1
Tl2S,mp-556516,146,-3.29756049,7.504253966445805,-0.5654618810416665,877.9237578824071,0.899,9.67592249577481,9.675922529883804,2.0,1.0,-1
Cu(IO3)2,mp-556582,11,-4.459474372777779,5.0713713479314295,-0.8348938491666663,270.6905100063044,0.5519000000000003,5.1045440000000015,8.365504921113367,2.0,1.0,-1
TlCO2,mp-556745,14,-6.439607255625,5.8896420327281795,-1.4196661012499998,280.12972331433826,2.9986,6.006213,6.941691039644014,2.0,1.0,-1
HgSeO3,mp-557224,14,-4.3654705545,6.1952309626266215,-1.05815290471875,351.17759810775965,2.5864,4.632233,10.376502,1.0,1.0,-1
Tl2CS3,mp-557251,15,-4.477175023333333,5.300060187696193,-0.41566564656250016,323.9407365572592,1.829,6.576185857961513,9.524830949778636,0.0,1.0,-1
Cu2WS4,mp-557373,121,-5.841511915714285,4.613843105131656,-0.8345834474999998,158.06681265928674,1.6795,6.5623340195738304,6.5623340195738304,2.0,1.0,-1
TlF,mp-557835,129,-3.86729668,7.953395290873437,-1.976195123095,93.27690410481544,3.007000000000001,3.842626,6.3171019999999976,0.0,1.0,1
Nb2Tl5S4Br9,mp-558099,71,-4.0192837464999975,5.419226385659488,-0.9875250811249998,629.723790468884,1.7504000000000004,10.34579595677945,10.34579595677945,1.0,1.0,-1
TlF,mp-558134,39,-3.8668043125,7.921891020860188,-1.9757027555950002,93.64785351136244,3.0179000000000005,3.8506582835907417,6.31616,2.0,1.0,1
Hg3Se4O5,mp-558456,2,-3.84093451,6.318512056124972,-0.8306833142187499,524.3530064986746,1.8769,7.908417999999997,9.504796875659997,2.0,1.0,-1
Tl2MoO4,mp-558755,164,-5.854438173571429,6.332291013115869,-1.7086366214285715,298.2666271917973,3.3154000000000003,6.409211644721682,8.384261,2.0,1.0,1
Hg2MoO4,mp-558802,15,-4.9607763885714276,7.599536429849525,-1.4029670121428577,245.2143507325173,1.9134,5.057434809290673,7.497971511684277,1.0,1.0,-1
Pb3SO6,mp-559143,2,-5.842592886,7.032375402070633,-1.8341004970625,354.03173757064064,2.9556,5.891761,8.325269277737027,2.0,1.0,-1
BiTeIO3,mp-559332,14,-4.90124922,6.3110335723692526,-1.3521918431249995,538.319189654159,2.4117,7.174108,9.588579942303973,2.0,1.0,-1
Hg3AsS4Cl,mp-559355,186,-2.887135739444444,5.782909368164028,-0.5853613011955553,482.6375726145612,1.537,7.589651620781878,9.674907,2.0,1.0,-1
Tl(NiS)2,mp-559492,139,-4.765949502,7.003885805169166,-0.5923682872500002,91.49238146942758,0.0,6.8922328731038975,6.8922328731038975,2.0,1.0,-1
SnS,mp-559676,63,-4.496017655,5.060457430015728,-0.7547367940625005,98.95065069872021,0.7974999999999994,4.107896,6.208425020222843,2.0,1.0,-1
Au2Se3O10,mp-559824,36,-4.882395434,5.301026280818232,-0.9162519539687499,495.43845935902283,0.9805,8.861956,9.293098753320393,2.0,1.0,-1
Ta2CS2,mp-559976,164,-9.17074277,8.6839387095421,-1.1930796312499994,83.76114557624767,0.0,3.2898861285573395,8.936146,2.0,1.0,-1
NbCoTe2,mp-5603,64,-6.251827575,7.089603944528817,-0.3777714012500004,381.34999993130486,0.0,6.3752559999999985,8.606776264023656,2.0,1.0,-1
CdSb6(S2I)4,mp-560411,2,-3.7421110763157897,4.5045652987949465,-0.6064865186842108,592.4360959388665,1.7385999999999997,7.565503,9.146432132958676,2.0,1.0,-1
AgPb4ClO4,mp-560923,85,-4.935955608,7.345343813075236,-1.343989894492666,468.4643193899436,2.4592,6.551467,8.456078,2.0,1.0,-1
CdI2,mp-567259,164,-1.90829464,5.090555724733785,-0.5846563100000001,119.4609292622389,2.4036,4.346905113308663,7.300202,2.0,1.0,-1
Te,mp-567313,154,-3.1432769,6.0612779692512415,2.402999999991569e-05,104.87134197097436,0.5789,4.506739715725881,5.962127,1.0,1.0,-1
HfIN,mp-567441,166,-8.01794992,7.387807664148427,-1.540058702459999,143.58200560000182,1.2242000000000006,12.234173847446339,12.234174086452752,2.0,1.0,-1
PtCl2,mp-567484,58,-3.5840830866666664,5.12692445944772,-0.7245465321733331,172.30087543459263,1.3506,3.45126,11.386837,1.0,1.0,-1
Nb3TeI7,mp-567713,156,-4.55171179,5.727549050157332,-0.541229575909091,375.3468713718713,0.4801000000000002,7.245336,7.734314515418804,2.0,1.0,-1
TaSe2,mp-567724,166,-7.072023496666668,7.366047116944069,-0.7888233015624996,76.39149522428902,0.0,7.467869604351495,7.467869734493028,2.0,1.0,-1
AgI,mp-567809,129,-2.43451454,5.5480196019640635,-0.2562302308333333,140.5363420731169,2.2061,4.589103,6.673183,2.0,1.0,-1
HfGeTe4,mp-567817,36,-4.9806343825,6.835810533807202,-0.4550643116666666,369.9781640037957,0.3871000000000002,8.527050246305109,11.108767,2.0,1.0,-1
InSiTe3,mp-567931,162,-3.731554313,5.226637833979407,-0.21017420500000056,334.0392913865677,0.5640000000000001,7.171085438189466,7.500619,2.0,1.0,-1
Hg3AsSe4Br,mp-567949,186,-2.6005718866666667,6.404485316487483,-0.2460461143750001,556.116884405411,1.3128,7.876904894455942,10.349617,2.0,1.0,-1
HfI3,mp-568002,193,-4.51183190875,5.40057150534391,-0.879525235,343.88179382944946,0.0,6.492496,7.8204805631000065,1.0,1.0,-1
TlSn2Br5,mp-568244,140,-3.129219033125,5.25251091639508,-0.8085403593750002,531.9551846832371,2.3783000000000003,9.544540820808301,9.544540820808301,2.0,1.0,-1
BiBr3,mp-568301,12,-2.96984255125,4.438965233712183,-0.7696390687500001,335.6959200437042,2.9512,7.374485028662679,7.528917772578274,2.0,1.0,-1
HfBrN,mp-568346,59,-8.351405505,6.7678952570304025,-1.8358763124600008,133.6699186203598,2.1298000000000004,3.5820260000000004,9.053209,2.0,1.0,-1
BiI,mp-568388,12,-3.0014338875,6.1036046117317,-0.2944104250000001,365.5216771039295,0.8340999999999998,8.114620436225284,11.039652792436726,1.0,1.0,-1
CdBr2,mp-568690,166,-2.2804067233333334,4.5811787353954125,-0.8814924433333333,98.67117400992856,2.9358,7.246401859002439,7.246401959743401,2.0,1.0,-1
Tl2CdGeTe4,mp-568890,121,-3.12268101625,6.87323871817192,-0.267377604375,266.7732837475162,0.4309999999999996,7.073417118709245,7.073417118709245,1.0,1.0,-1
TlBr,mp-568949,63,-2.8609313225,6.582511850548662,-0.8616415625,143.4316195720594,2.4061000000000003,5.062307,6.717074290160114,2.0,1.0,-1
PdI2,mp-569017,58,-2.977297821666667,4.80363486547821,-0.2346621416666667,249.05066456601227,0.9689,3.90034,9.008436,1.0,1.0,-1
BiI3,mp-569157,162,-2.59701997,4.658917194956159,-0.48150193125,420.3593100548389,2.548,7.829226339508266,7.918672,2.0,1.0,-1
TlPAuSe3,mp-569287,12,-3.794709328333333,6.6214005253546775,-0.2052835259337797,335.650673458255,1.0560999999999998,7.2404184919536245,8.442513830492432,1.0,1.0,-1
CoI2,mp-569610,164,-3.3828330033333334,5.798238637201006,0.0026146716666666237,89.56522237761564,0.0,3.938657233724458,6.666722,2.0,1.0,-1
Nb(SeBr)2,mp-569623,12,-4.832160243,4.757144978589009,-0.7587640279375002,286.6738067256956,1.05,6.817885775800662,7.611420073352016,2.0,1.0,-1
TlCl,mp-569639,225,-3.122584225,5.716620099833651,-1.3148322466300002,69.66661047677215,2.5976,4.6186305758796085,4.6186305758796085,0.0,1.0,-1
Tl2Hg2PdCl8,mp-569675,12,-2.6707534861538464,5.148364902405486,-1.0906491543138466,387.0415770105477,1.7020999999999995,6.759556169130117,10.149741772576188,0.0,1.0,-1