pretty_formula,task_id,spacegroup.number,final_energy_per_atom,density,formation_energy_per_atom,volume,band_gap,min_abc,max_abc,Dimension,Dim,is_uv
Tl4BrCl3,mp-1216569,47,-3.012759035,6.805707416987635,-1.1571226112225004,244.91837554521413,2.3462,3.9441,11.138552,2.0,1.0,-1
TlSbSe2,mp-1216592,38,-3.6665510775,6.403726340190767,-0.2959317836718749,125.52160689823765,0.3181000000000003,4.167138,7.5372021955153885,2.0,1.0,-1
TlIn3,mp-1216611,123,-2.6387218375,7.915953094966258,0.015454205000000162,115.130265038685,0.0,3.292527,10.620154,2.0,1.0,-1
TlCoNiS2,mp-1216615,119,-5.035171818,6.898240919318472,-0.59595438025,92.95128835304158,0.0,7.248311589299537,7.248311589299537,2.0,1.0,-1
Tl2GaCu3Se4,mp-1216617,21,-3.716841492,7.297958424943856,-0.31357475368749943,224.1143459443351,0.29239999999999977,5.652485,7.5445403794760075,2.0,1.0,-1
TlIn2GaSe4,mp-1216619,23,-3.60870736625,6.00371741018108,-0.499112134609375,226.68429149179974,0.3957999999999999,6.7117926389536215,6.7117926389536215,2.0,1.0,-1
Tl2Cu2SnTe4,mp-1216636,42,-3.458013228888889,7.300565590025058,-0.1797360205555556,264.97616490226875,0.22360000000000024,6.982915781454334,8.584208119125725,2.0,1.0,-1
TlFeCuSe2,mp-1216642,119,-4.57818271,7.584289180002942,-0.1936456129375003,105.4643598529335,0.0,7.445748726784835,7.445748726784835,2.0,1.0,-1
Tl2FeCu3Te4,mp-1216651,21,-3.930562705,7.4874560414356734,-0.12414944800000001,258.5132637914656,0.0,5.85789,8.093888962193699,2.0,1.0,-1
TiMo2,mp-1216675,69,-9.950038336666667,8.249541766606878,-0.08777897777777828,48.258348265069344,0.0,2.7896560398479235,7.034522210874312,1.0,1.0,-1
Tl3In5Se8,mp-1216699,89,-3.54852181375,6.361852727360501,-0.4978549755468746,474.7653997044519,0.5379,6.962636,8.257578,1.0,1.0,-1
Tl2Fe3Se4,mp-1216741,21,-5.098565183333333,7.016711149085674,-0.19668068215277795,211.12968002567288,0.0,5.5133440998234455,7.457160742864069,2.0,1.0,-1
Tl2Co3NiSe4,mp-1216747,21,-4.814912521,7.812887385906747,-0.2337083274374997,204.05808889486732,0.0,5.448675,7.390661485842861,2.0,1.0,-1
TlCNO,mp-1216754,46,-6.69620668375,5.503270116138754,-0.7495638496575001,148.6959511088736,2.773,5.812634814512005,5.812634814512005,0.0,1.0,-1
TiVSe4,mp-1216764,10,-6.0479956716666665,5.1441905198687365,-0.8874883387847223,133.84808173369504,0.0,3.467788,6.4348915110653575,2.0,1.0,-1
Tl3(SO4)2,mp-1216815,12,-5.447238648461538,6.327031507617687,-1.7552184620192308,211.34567787441173,0.0,5.80177440782292,7.866113101085694,2.0,1.0,-1
Ti2C,mp-1217106,166,-8.97363792,4.5082799811594265,-0.6343830088888893,39.68570814519028,0.0,5.1331030420900365,5.133103415731462,2.0,1.0,-1
TePdSe,mp-1217263,156,-4.248045156666667,7.4517859887862565,-0.3083470841145832,69.74375241674365,0.0,3.9701941195525934,5.10918,2.0,1.0,-1
TeSe2,mp-1217269,5,-3.383305383333333,5.139526760089229,-0.004930754895832834,92.24917709882702,0.8972999999999995,4.4756363355059365,5.35283480479269,1.0,1.0,-1
TeSe,mp-1217322,1,-3.326424315,5.450631189129453,-0.006818111171874956,188.78599800384487,0.9465000000000005,4.398765,11.035667423985467,0.0,1.0,-1
TePb3(ClO2)2,mp-1217378,38,-4.982278368999999,7.185074901401852,-1.6051177721519998,204.324740781097,2.0872,5.637003,7.006054357874197,2.0,1.0,-1
TaTiSe4,mp-1217829,10,-6.583618815,6.474556366020447,-0.9607995554513892,139.68844426173902,0.0,3.511875,6.500966625631299,2.0,1.0,-1
TaSeS,mp-1217890,156,-7.39662089,7.420853309436703,-1.1210612318229174,65.33377677890199,0.0,3.4333277683170587,6.39995,2.0,1.0,-1
TaMoS4,mp-1217910,6,-7.482815363333334,5.729534409184022,-1.3835853420833348,117.42034071944448,0.0,3.279774,6.578399627822332,2.0,1.0,-1
TaMoS4,mp-1217917,8,-7.4819376800000015,5.686341796576728,-1.3827076587500011,118.31224828855413,0.0,5.690754400772714,6.610762812016553,2.0,1.0,-1
TaNbTe4,mp-1217942,1,-6.1618845094444445,7.883234208602523,-0.4065034444444449,495.5903132205681,0.0,7.35455241275042,9.919433639061634,2.0,1.0,-1
TaNb2FeSe10,mp-1217949,6,-6.0056508921428575,6.2317334793797325,-0.6135433659598216,323.0104157428133,0.0,3.541356,10.173585401108351,2.0,1.0,-1
Ta2MoS6,mp-1218002,8,-7.568594422222222,5.970823522983628,-1.4131347009722228,180.83356046841183,0.0,5.7147860724100585,6.6722979048295645,2.0,1.0,-1
Ta2FeS4,mp-1218020,164,-7.815357912857142,7.952165677742201,-1.2328553975000005,114.01366987498562,0.0539000000000005,3.3237720100567967,11.916915,2.0,1.0,-1
Ta4MoSe10,mp-1218047,8,-6.997571906666668,7.5892524302773525,-0.7818473515625006,352.1239917398684,0.007099999999999884,9.919758978075272,10.511970298908052,2.0,1.0,-1
Ta2NiS4,mp-1218077,164,-7.4532795,7.597020898613432,-1.2550435846428567,119.96616621351338,0.0,3.350504364179817,12.339791,2.0,1.0,-1
SrIn3Au,mp-1218236,107,-3.0628807680000003,7.6586594948770665,-0.4191979713333335,136.38763284873778,0.0,7.260036600205469,7.260036600205469,2.0,1.0,-1
Sr2ZnAs2,mp-1218372,187,-3.62133854,4.555887779381711,-0.8299499546666667,142.32737606863967,0.0,4.38028021157962,8.565526,2.0,1.0,-1
SnGeSe2,mp-1218835,26,-4.2211016675,5.488088121542885,-0.3149960011718749,211.35829707790163,0.8162000000000003,4.0380150000000015,11.446384,2.0,1.0,-1
SnSeS,mp-1218912,156,-4.2216995200000005,4.756631238362117,-0.5622084534895837,80.20044509414396,0.9221999999999996,3.794489363985752,6.431902,2.0,1.0,-1
SnP,mp-1218948,164,-4.694068175,4.785522252094972,0.017360683214285192,103.87820653340208,0.0,4.176308154128117,6.877153999999999,2.0,1.0,-1
SnPbS2,mp-1218951,26,-4.47030726,6.101166612516952,-0.8032575953125005,212.31239815936573,1.0244999999999995,4.0999360000000005,11.701743,2.0,1.0,-1
Sn2SeS,mp-1218960,26,-4.3392436875,5.38663914109193,-0.5922324238671877,214.83025682843387,0.8272999999999993,4.124219,11.61257,2.0,1.0,-1
Re3Br8Cl,mp-1219236,8,-4.772101574166666,5.297837060077773,-0.4651978365216666,773.1278900608977,0.9126,9.773548378819894,9.807469433018133,2.0,1.0,-1
SbPbIO2,mp-1219447,107,-4.917423972,7.404747643930754,-1.3460255995000003,109.40494638709656,1.5057,7.440388511681968,7.440388511681968,2.0,1.0,-1
SbAs,mp-1219457,160,-4.40902323,6.067964257083869,-0.014963407499999803,53.82323735676554,0.0,4.379586292358332,4.379586488829512,2.0,1.0,-1
Sb4(TeSe)3,mp-1219473,8,-3.839852309,5.938264473127009,-0.1964880907031244,309.4762458129145,0.2049000000000003,7.285567329730197,10.375507095062005,2.0,1.0,-1
Sb2Te2Se,mp-1219475,160,-3.7663854960000003,5.954732679742924,-0.1582823324687503,161.092069045642,0.4848999999999997,10.567867545407637,10.567867679009092,2.0,1.0,-1
Sb4Se3SI4,mp-1219479,6,-3.4153849266666665,5.109329569609288,-0.3676532833463539,410.6726564261791,1.3956000000000004,4.1771720000000006,10.782111568527286,1.0,1.0,-1
SbPbBrO2,mp-1219502,107,-5.05390229,7.2833677659670375,-1.4599211325,100.51255489684357,1.5076,7.070969014331343,7.070969014331343,2.0,1.0,-1
PtSeS,mp-1219720,156,-4.915329266666666,7.976322741172996,-0.5687262484895831,63.72685379367034,0.5415999999999999,3.6824833998186612,5.42638,2.0,1.0,-1
PtCl2,mp-1219748,12,-3.5843084666666667,4.940324187827959,-0.7247719121733335,178.80882692401772,1.1394000000000002,6.785847320053112,8.218805846486763,1.0,1.0,-1
PdSeS,mp-1219871,19,-4.534917504166667,5.328952055721815,-0.4853231193229159,271.029585975833,0.3701000000000003,5.652424,8.310839999999999,2.0,1.0,-1
NiTeSe,mp-1220035,156,-4.386659866666666,7.088737635953032,-0.2468768374479164,62.13569409234585,0.0,3.767640907322378,5.054423,2.0,1.0,-1
Ni2H,mp-1220079,166,-4.986406523333334,8.339830460257781,-0.053069849539999936,23.57351171427445,0.0,4.433694074277226,4.433694490624382,2.0,1.0,-1
Nb4C3,mp-1220501,160,-10.166473457142855,7.6274177311197615,-0.439964562857142,88.7497482988648,0.0,10.449072823822648,10.449073037958774,2.0,1.0,-1
Nb4C3,mp-1220515,166,-10.200968132857145,7.6220856943700825,-0.4744592385714291,88.81183326332592,0.0,10.445356654590306,10.445356953973857,2.0,1.0,-1
Nb3IrSe8,mp-1220676,12,-6.238014815,6.608689849625816,-0.6455450348958323,277.0499475077292,0.0,6.841036049570563,9.025740886849011,2.0,1.0,-1
Nb2VFeSe10,mp-1220694,6,-5.7751840250000015,5.9023728011462016,-0.5812101816741081,304.45961473776083,0.0,3.494726,10.105355122550273,2.0,1.0,-1
Nb3(IrSe5)2,mp-1220701,2,-6.12092026,6.671304966150501,-0.5915942108958329,361.60141911302895,0.0,5.798063,9.257856190927413,2.0,1.0,-1
Nb3FeSe10,mp-1220711,6,-5.87828767642857,5.985110911846018,-0.6116424781026788,311.89371412417665,0.0,3.531677,10.211651360348824,2.0,1.0,-1
Nb2FeS4,mp-1220734,164,-7.330755188571429,5.359052796250515,-1.2501019846428574,114.62154139233981,0.0,3.3450358678674883,11.828619,2.0,1.0,-1
Nb3Fe(Se4S)2,mp-1220747,6,-6.015003154285713,5.584227259087802,-0.7516324717857147,306.39449888074034,0.0,3.5008,10.112701667944133,2.0,1.0,-1
NaBi3(ClO2)2,mp-1220820,38,-5.020429655,6.799280895490654,-1.772917757485334,191.6744554518921,2.3702000000000005,5.568328,6.776946099143553,2.0,1.0,-1
NaBi3(BrO2)2,mp-1220821,38,-4.916420811,7.135876664459821,-1.5922938008333332,203.3210179251784,2.2883,5.63169,6.999685260424571,2.0,1.0,-1
NaBi3(IO2)2,mp-1220823,38,-4.787071398999999,7.302014013917358,-1.4855271738333335,220.07160453414696,1.8963,5.710986,7.323302955618661,2.0,1.0,-1
NaSr2(SnAs)6,mp-1220888,12,-4.2459378333333335,5.394949896618382,-0.4655540811111114,418.6072785287036,0.0,7.2454060953232995,9.521308523978883,2.0,1.0,-1
MnTlCuSe2,mp-1221565,119,-4.873966908,6.885717689145439,-0.3510890928685342,115.9452369588034,0.058599999999999326,7.703261168254521,7.703261168254521,2.0,1.0,-1
Mn2N,mp-1221793,164,-9.100126,6.765493316110952,-0.3414976238967817,30.406092041290282,0.0,2.8242717408877285,4.401665,2.0,1.0,-1
Mn3Fe9C4,mp-1221888,1,-8.74137690875,7.8798303059519545,0.047514849439654235,150.77132978807242,0.0,4.4572234881043356,6.743630610000078,2.0,1.0,-1
MgIn2,mp-1222037,139,-2.41207518,5.640466959850701,-0.044192676666666784,74.75958180643825,0.0,7.043291738336415,7.043291738336415,2.0,1.0,-1
LiBi3(ClO2)2,mp-1222452,38,-5.111672967,6.801543132199591,-1.8047340044853333,187.6925324054348,2.5888000000000004,5.514286,6.7605818550352605,2.0,1.0,-1
InI2Br,mp-1223696,1,-2.4639402725,4.387681839488553,-0.6047813974999998,339.49733626795415,1.785,7.239101,8.4134504707725,2.0,1.0,-1
InBiSe3,mp-1223842,160,-3.852916532,6.346121737459677,-0.4270260374062495,146.7082456838383,1.0506000000000002,10.256907053880226,10.256907551873761,2.0,1.0,-1
In3GaTe4,mp-1223857,121,-3.26388348625,5.894895268702066,-0.2818396846875002,260.44503907155394,0.047700000000000735,7.0299622778620945,7.0299622778620945,1.0,1.0,-1
Hg11I2BrClO4,mp-1224171,1,-1.8512643542105265,8.596614346839633,-0.4690565312242103,509.88070984833655,1.2719999999999998,6.662275,10.793961051515147,2.0,1.0,-1
HfTiSe4,mp-1224218,10,-6.515256761666668,5.896664476334782,-1.209202298784722,152.68620147995068,0.0,3.682622,6.574361543213911,2.0,1.0,-1
Hg3(SCl)2,mp-1224250,26,-2.1512470485714283,5.9514647967250935,-0.6705723653957144,411.15765254245684,0.5972,4.690875,9.653824,2.0,1.0,-1
HfTeSe,mp-1224271,156,-6.607491016666668,7.203839697604951,-1.075357264114583,88.75691220709801,0.0,3.9006916844734087,6.735786,2.0,1.0,-1
GeAs3,mp-1224319,160,-4.586309555,5.4823345072975815,0.06378621250000016,90.08065603019823,0.0,7.634614235840933,7.634614715104097,2.0,1.0,-1
GeSbTe3,mp-1224339,160,-3.711550424,6.334706398086518,-0.07516404699999983,151.30348417268974,0.0,10.165887882295179,10.165888143268152,2.0,1.0,-1
Ge2SeS,mp-1224376,26,-4.44677166,4.593964678070553,-0.3930323963671869,185.2885232211516,1.1343000000000003,3.785688,10.915485,2.0,1.0,-1
Hf2(SeS)3,mp-1224418,6,-6.42701045,6.066744385596019,-1.324375233300782,188.87614390400745,0.6206,3.691763,9.563626351577314,2.0,1.0,-1
Fe4Te3Se,mp-1224990,25,-5.95366058125,6.652989837366293,-0.1029323577929695,171.00608356568662,0.0,3.657304,7.288261,2.0,1.0,-1
FeCo(BiO3)2,mp-1225028,99,-6.02442624,7.552293188653858,-1.6018880292500002,138.2414135510773,0.6764999999999999,3.762837,9.763541,2.0,1.0,-1
Fe2TeSe,mp-1225136,99,-6.018240725,6.310824077785492,-0.12343618308593828,83.7397068008418,0.0,3.755398000000001,5.937717,2.0,1.0,-1
Cu4Bi3Pb(SeO)4,mp-1225836,107,-4.77557064625,8.315546472020696,-0.853952867148438,293.1787698778162,0.0,10.110113950852485,10.110113950852485,2.0,1.0,-1
CoTeSe,mp-1225994,156,-4.8187175233333335,7.103496525897405,-0.23620745578125005,62.062650499889756,0.0,3.6349002249794973,5.423938,2.0,1.0,-1
CoNiTe4,mp-1226048,10,-4.468280615,7.481794695298518,-0.2246709158333336,139.38670310167694,0.0,3.839234,6.66269658374633,2.0,1.0,-1
CoNiTe4,mp-1226054,12,-4.464041671666666,7.581315757161633,-0.22043197250000013,137.5569530758752,0.0,6.578065567522493,6.69015269449674,2.0,1.0,-1
CrAg(PSe3)2,mp-1226281,5,-4.66743641,4.641011583473891,-0.2386720037872017,248.87336879121943,0.7250999999999999,6.381072073174933,7.350600616702013,2.0,1.0,-1
CrCu(PSe3)2,mp-1226296,5,-4.772583608,4.644036165367185,-0.2171541351205356,232.86326898685056,0.6841999999999997,6.253193301225383,7.163105123010621,2.0,1.0,-1
Cr2C,mp-1226378,164,-9.548404576666666,6.5069847922023225,-0.03744602999999932,29.60316543535325,0.0,2.8330892108710586,4.258797,2.0,1.0,-1
CdBiIO2,mp-1226753,107,-4.221785514,7.45490248589109,-1.2561319894999996,106.98303090136575,1.5517,7.192594357144159,7.192594357144159,2.0,1.0,-1
CdBiBrO2,mp-1226758,107,-4.3346932019999995,7.18584809040806,-1.3464568924999996,100.1276310574408,1.2683,6.9367704344989685,6.9367704344989685,2.0,1.0,-1
Bi2BrClO2,mp-1227332,99,-4.722618305,7.675541676800162,-1.5289221259599994,122.30150506965006,2.3954000000000004,3.947433,7.848782000000001,2.0,1.0,-1
Bi2Te2S,mp-1227335,160,-3.8743524739999997,7.215864236410702,-0.3664204046249999,162.28894465131197,0.8168999999999995,10.360408377585363,10.360408436096957,2.0,1.0,-1
BiSbTe3,mp-1227340,160,-3.668279478,6.854835222929022,-0.17849181000000058,172.85050205643122,0.28190000000000026,10.673069632749382,10.673069952530057,2.0,1.0,-1
Bi2TeSe2,mp-1227356,160,-3.924013326,7.266132745943795,-0.3409748249374999,160.7674112002876,0.4376999999999995,10.433439804949325,10.433440598973332,2.0,1.0,-1
BiPbIO2,mp-1227389,107,-4.9069241439999995,8.29069059039695,-1.3833191574999997,115.18327577015269,1.7573,7.51551144116766,7.51551144116766,2.0,1.0,-1
Bi(SbTe2)3,mp-1227414,8,-3.661359406,6.5842084881307406,-0.14767504499999973,337.91313595264813,0.2588999999999997,7.591865202578151,10.460487904801763,2.0,1.0,-1
BiPbO2F,mp-1227424,8,-5.419634461999999,8.585313269196057,-1.916721971738,90.35973840786792,2.2345,4.000558768447354,6.511621364132669,2.0,1.0,-1
Bi4(TeSe)3,mp-1227439,8,-3.863326677,7.243771717577152,-0.3155492307031246,333.67745650244154,0.3296000000000001,7.4700157175120445,10.649685501399654,2.0,1.0,-1
BiPbBrO2,mp-1227444,107,-5.03383906,8.267326653823874,-1.4876512884999995,106.06848147333677,1.7955,7.180147959561976,7.180147959561976,2.0,1.0,-1
BaFeCuPb2ClO5,mp-1228046,99,-5.596793540909092,7.137628409711412,-1.809279646319092,182.9917190365809,0.0,3.972834,11.593928,2.0,1.0,-1
Li5Tl2,mp-12283,166,-2.27483614,5.534063942497406,-0.2365618123809524,133.0671138568894,0.0,7.361519987988486,7.361520668537174,2.0,1.0,-1
Ba2Na(SnAs)6,mp-1228433,12,-4.2706115953333335,5.499631162341678,-0.4596292328888893,440.6561191564035,0.0,7.313211821207492,9.818663897837272,2.0,1.0,-1
AsP,mp-1228795,160,-4.95312385,4.494692209277934,0.08307828321428534,39.122453192628754,0.0,3.9485641220560166,3.94856510966009,2.0,1.0,-1
Al2CrB2Mo,mp-1228929,38,-7.284200001666666,5.5749122204133785,-0.3927623847222215,66.57784594238852,0.0,3.058923,7.111043441369909,2.0,1.0,-1
AlAg(PSe3)2,mp-1228964,5,-4.143295843,4.385035805906184,-0.30527860078720226,253.92872036299119,1.6424,6.430891208097678,7.386181986223803,2.0,1.0,-1
NaSnN,mp-12433,186,-4.637476716666667,4.778073024549201,-0.2119112969044448,108.22633887483828,0.9333,3.3669475659297103,11.023756,2.0,1.0,-1
Co2NiN2,mp-1245646,166,-7.172759384,6.852769402823862,0.0075839450480003736,49.571458487133896,0.0,2.7439877266134047,8.236027254377074,2.0,1.0,-1
Sb4S3N2,mp-1245848,12,-5.0646177733333335,4.735737715596988,-0.3046267804594444,214.328138201968,0.8710000000000004,3.7032219880699833,9.200801620011324,2.0,1.0,-1
Mg(InN)2,mp-1245913,166,-4.910191298,6.233948738374492,-0.3084729209519999,75.10429037019088,0.9213000000000005,3.3402505585942204,8.007005644688531,2.0,1.0,-1
LiSnN,mp-1245978,62,-4.866481634166667,4.943402049954949,-0.2428259977377773,187.64977192467381,0.0,3.24097661,10.2888522,2.0,1.0,-1
LiSnN,mp-1245983,186,-4.935775933333333,4.965349553089297,-0.3121202969044437,93.41016753079022,1.1624,3.276733,10.045689,2.0,1.0,-1
Ba2SrN2,mp-1247390,164,-4.855350062,4.586691294221149,-0.568876604285333,141.2973826510359,0.0,3.9305682257709247,10.560664009944922,2.0,1.0,-1
Ti2Te2P,mp-12527,166,-6.412740694,5.513174213539204,-0.9145663430476192,115.02860857931515,0.0,10.157333394189736,10.15733373965875,2.0,1.0,-1
Mg2Rh,mp-12693,139,-3.94268985,4.842911429151424,-0.4210671933333335,51.95168456539732,0.0,5.4880102116788185,5.4880102116788185,2.0,1.0,-1
SnBr2,mp-1272139,164,-3.207763493333333,4.018762626923353,-0.7799551816666668,115.08269153616756,0.0,4.401315000000113,6.859847,2.0,1.0,-1
GeS,mp-12910,63,-4.58577439,4.110012712220945,-0.5377655290624999,84.60642588835198,0.7596000000000007,3.88905,5.923203016294563,2.0,1.0,-1
Ti2Pd,mp-13164,139,-7.4396207966666665,6.905202241177124,-0.44933218222222254,48.61329223171783,0.0,5.453445553022237,5.453445553022237,2.0,1.0,-1
Y2C,mp-1334,166,-7.677468363333332,4.5358179164546035,-0.2908940544444445,69.49298157941755,0.0,6.482894820055081,6.482895508610331,2.0,1.0,-1
ZrGeTe4,mp-13542,36,-4.7987687825,5.83112990625263,-0.5081134149999998,384.0222156606074,0.4213000000000005,8.791600566003268,11.144247,2.0,1.0,-1
PdS2,mp-13682,61,-4.754225080833334,4.276525016859246,-0.7122712329166667,264.89258142268096,0.6537000000000002,5.501706,8.607088000000001,2.0,1.0,-1
Sn3Pd,mp-1371,64,-4.59478580375,8.104937046016117,-0.29263645999999977,379.0688766094101,0.0,6.599589999999999,9.337081455018053,2.0,1.0,-1
TlCu3S2,mp-13829,12,-4.0334960466666665,6.963153991980455,-0.43262059270833336,218.99233364888562,0.4534000000000002,7.514490319021312,8.42791718749692,2.0,1.0,-1
Ag2F,mp-1391,164,-3.22804738,8.30967891480713,-0.8661599998411112,46.90750569311375,0.0,3.0572637487871406,5.794899,2.0,1.0,-1
Sn4Au,mp-1393,68,-3.937203868,8.44802851267089,-0.07477007600000007,264.09973672551394,0.0,6.6582240000000015,6.811545115303942,2.0,1.0,-1
HfSiTe,mp-13963,129,-6.895006291666667,8.002290233291768,-0.7197383583333341,138.68816468115617,0.0,3.66266,10.33823,2.0,1.0,-1
Hg2GeO4,mp-13995,70,-4.457873815,8.077130594325682,-1.2845808921428572,221.13475202009155,1.0213,6.559487171297006,8.10385472753214,2.0,1.0,-1
Se,mp-14,152,-3.488805096666667,4.403367043888126,0.007106380989583272,89.32902712304569,1.0119000000000002,4.51946568170099,5.049958,1.0,1.0,-1
Ga,mp-140,139,-3.00390823,6.083220943531009,0.024187272499999857,19.03231304851284,0.0,3.134792127664449,3.134792127664449,2.0,1.0,-1
Tl2SiSe3,mp-14241,2,-3.9222021441666666,5.8581347513227975,-0.4828097420052082,381.9504057054461,1.6828,7.083117,8.91911859880835,2.0,1.0,-1
Tl2GeSe3,mp-14242,2,-3.6839654083333335,6.175528205248084,-0.3782873670052081,386.2804672486707,1.1446,7.093310000000002,8.959713423957544,2.0,1.0,-1
LiBiO2,mp-1540429,15,-5.421904121875,6.808878673255465,-1.8493320933333333,241.84961856719474,2.4143000000000003,4.9786735012011984,9.966818419933862,2.0,1.0,-1
HfSe3,mp-15622,11,-6.12386721,6.660319846606367,-1.0126363892578123,207.1186153154744,0.6109,3.749518,10.198176412106726,2.0,1.0,-1
As,mp-158,64,-4.634777965,5.0080207355778565,0.024340440000000463,99.36879282335742,0.0777000000000001,4.686427,6.0133078510258375,2.0,1.0,-1
Tl(TeMo)3,mp-16096,176,-6.621558830714287,7.657721754902117,-0.28891813642857145,379.4802709105462,0.2123,4.620138,9.73871870295908,1.0,1.0,-1
Zr2Te2P,mp-16765,166,-6.8747077160000005,5.957328312796736,-1.1156499197142864,130.6231086153802,0.0,10.400634955008133,10.400635288498966,2.0,1.0,-1