pretty_formula,task_id,spacegroup.number,final_energy_per_atom,density,formation_energy_per_atom,volume,band_gap,min_abc,max_abc,Dimension,Dim,is_uv
HgCl2,mp-22855,62,-1.9341137158333328,4.602845244468777,-0.99698627634,391.78350822669444,3.1737,4.36734,13.584397,0.0,1.0,1
Bi2S3,mp-22856,62,-4.3800380255,6.478231082781669,-0.7402303813749995,527.1660002917807,1.5027,4.021421,11.735325,2.0,1.0,-1
SbSeI,mp-22996,62,-3.3678399758333337,5.10896610551264,-0.3181981982812505,425.9438957890919,1.4167999999999998,4.187346,11.100488,1.0,1.0,-1
Pb5(SI3)2,mp-23066,12,-3.3692842146153845,6.118759822077648,-0.7036464627884615,505.19842487558884,1.9432,7.864607537985668,15.010291812730696,2.0,1.0,-1
Bi2Se3,mp-23164,62,-4.0118619875,7.176336190572356,-0.35830137690624964,606.0968727926173,1.0908000000000002,4.160115,12.535619,2.0,1.0,-1
HgI2,mp-23173,36,-1.410364738333333,5.169871713786026,-0.29312954,291.9017079977234,2.5784,4.6557058578018005,14.381704999999998,0.0,1.0,-1
HgI2,mp-23192,137,-1.4301351133333335,5.324168651514593,-0.3128999150000002,283.44225777933593,1.8528,4.520633,13.869669,2.0,1.0,-1
Ta3I7,mp-23238,64,-5.100216093249999,5.916593574267447,-0.4760739737500003,1606.6825294470327,0.8864000000000001,11.16276819475443,12.922598,2.0,1.0,-1
TiI3,mp-23264,59,-3.9216503325,4.3596402435706905,-0.8047678670833336,652.9662763196811,0.2019000000000002,6.4770900000000005,13.196221,1.0,1.0,-1
HgBr2,mp-23292,36,-1.6672889183333333,5.1993944046800324,-0.47477777,230.20179349573127,2.8404,4.308542546602621,13.087909,0.0,1.0,-1
RuBr3,mp-23294,59,-3.867924143125,4.308730257941109,-0.32163182437500026,525.3351129615461,0.0,5.92598,12.413004,1.0,1.0,-1
MoBr3,mp-23312,59,-4.39115328875,3.943335577283174,-0.4520476262500002,565.3723837182813,0.0,6.119478,12.680266,1.0,1.0,-1
Bi2TeO5,mp-23334,39,-5.6732615484375,7.527408813058576,-1.65429943671875,551.9897702456648,2.5328000000000004,8.855401880143047,11.718463,2.0,1.0,-1
GaSeBr7,mp-23376,7,-2.4813127733333333,3.3357875394945373,-0.4832580222048613,704.888972191964,2.1839,6.773282000000001,15.312787234240801,0.0,1.0,-1
Bi2TeI,mp-23435,166,-3.35059882375,6.8468865327036825,-0.23875328249999986,326.17886872612576,0.19440000000000035,19.303469790553844,19.30346997978408,2.0,1.0,-1
Y6C2I7,mp-23440,12,-5.618449029333333,5.107490830237142,-1.090417270333333,470.0521620313526,0.0,11.122602619017274,12.927185321221707,2.0,1.0,-1
MnTlI3,mp-23443,62,-3.7469615445,5.8447859373022055,-0.5278820854310347,727.3509935591043,0.0017999999999998015,4.322928,16.431020999999998,1.0,1.0,-1
NbSeBr3,mp-23498,13,-4.5481323235,4.019493291402087,-0.8465330959687499,680.1274980802773,0.7718,7.148426,12.810898229575939,1.0,1.0,-1
TlRe6Se8Cl3,mp-23635,2,-6.702972598333334,7.618437955345223,-0.6608803293627774,897.8620169326723,1.4338000000000002,9.207167,11.228488441810903,2.0,1.0,-1
GaS,mp-2507,194,-4.23401483375,3.4058068602325102,-0.9834721490625,198.51149222189514,2.0109000000000004,3.6269178913631337,17.425272,2.0,1.0,-1
SnI2,mp-27194,12,-2.8445910244444446,4.9695287903407905,-0.4920586627777779,373.4250946210947,1.8334,7.751395622741108,11.166451417227812,2.0,1.0,-1
AuSeBr,mp-27199,62,-2.9577646354166665,6.970285589305396,-0.1555247828645836,678.1593704815625,0.7669999999999999,7.1185350000000005,12.42241,1.0,1.0,-1
TlCdI3,mp-27252,62,-2.179846484,5.955839094947377,-0.6085303670000002,777.8845487563913,2.4254,4.497421,16.637704,1.0,1.0,-1
AgIO3,mp-27384,29,-4.143026988,5.655834880740223,-0.7243139830833328,664.1665981168334,2.4582,5.897216,15.511621,2.0,1.0,-1
TlBr2,mp-27398,52,-2.53495210375,5.039757483011759,-0.6564500837499999,959.9729882310758,1.807,8.156797000000001,10.90624,0.0,1.0,-1
Sn4P3,mp-27410,166,-4.653700907142857,5.636037689248044,-0.04253733510203972,167.2788309603802,0.0,12.184902189028929,12.184902815800418,2.0,1.0,-1
GaTeCl,mp-27449,58,-3.3929471941666667,3.9040902009676164,-0.9178647244200002,396.0294172210266,2.1714,4.161416,15.905998,2.0,1.0,-1
TlPbI3,mp-27552,63,-2.791133822,6.0402878620838445,-0.6618662430000004,435.6215032572197,2.3962000000000003,8.071428601821736,12.008534,2.0,1.0,-1
Bi4Se3,mp-27607,166,-3.9906543442857134,8.063953576309098,-0.2695298195758927,220.9126020696108,0.0037000000000002586,13.840290471391162,13.840290661877079,2.0,1.0,-1
Na2PbO2,mp-27622,60,-4.558806518,5.18686988113508,-1.5921500298333335,730.3823430763694,2.4078,6.056671,17.171609,2.0,1.0,-1
Te3Cl2,mp-27628,14,-2.917029132,4.363337455416245,-0.5295081833040001,690.6608030654356,1.3668999999999998,7.552473,12.160528910658163,2.0,1.0,-1
Cd(IO3)2,mp-27640,19,-4.309018554166666,5.1355509054477135,-1.037362131666667,597.8157388931231,3.2733,5.704017,17.689443,2.0,1.0,1
Te2Br,mp-27648,62,-2.8091073329166663,4.9143762527548365,-0.16793119958333294,905.8374935162883,0.7690999999999999,4.0490910000000016,16.702413,1.0,1.0,-1
Te2I,mp-27655,62,-2.662093419583333,5.055947467434204,-0.05855526124999985,1003.9651781104976,0.6635000000000004,4.164434,17.074691,1.0,1.0,-1
AuI,mp-27725,138,-2.47527234125,6.7578262817418695,-0.07632526375000026,318.32751561125417,2.0942,4.605302,15.009214000000002,1.0,1.0,-1
W3Br8,mp-27765,64,-5.149682332727274,5.422800536980791,-0.4251558118181817,1458.5011572142114,0.0,10.005145457419847,14.816947,1.0,1.0,-1
Nb3Br8,mp-27771,166,-4.874644931363637,4.8499553474862775,-0.9292515277272728,628.5805208454317,0.05900000000000016,14.676687809916382,14.676687902505114,2.0,1.0,-1
Nb3I8,mp-27772,166,-4.385477124545455,5.5986487428005125,-0.5222029390909093,767.5647323406502,0.08309999999999995,15.566740171187673,15.566740483699277,2.0,1.0,-1
Te6Cl2O11,mp-27808,63,-5.030281967368421,5.166652772394548,-1.4476594573826314,650.8255470900721,2.9285,6.904345177906809,15.680209,1.0,1.0,-1
Sb6Pb4S13,mp-27907,1,-4.392840286304348,5.485576388611864,-0.7070375041576082,1196.4342025836454,0.8506,3.958408,17.991037483305874,2.0,1.0,-1
CdBr2,mp-27934,186,-2.281459426666667,4.412564447762295,-0.8825451466666667,204.88325531427398,2.9397,4.0738378277454785,14.255037,2.0,1.0,-1
Sn(SbTe2)2,mp-27947,166,-3.729035198571428,6.146180766792537,-0.18035261928571394,235.76205462686968,0.28420000000000023,14.383216942011304,14.383217513498574,2.0,1.0,-1
Ge(BiTe2)2,mp-27948,166,-3.7539023914285714,7.2279785266689025,-0.18585950642857127,229.96760822751057,0.5095000000000001,14.010444031392007,14.010444363263431,2.0,1.0,-1
Mo2SBr2,mp-28037,63,-6.516908958666666,5.079215140191505,-0.8292831572916659,752.758248079553,1.1341,9.88353371078634,12.065929,2.0,1.0,-1
NbTeBr3,mp-28038,13,-4.401460205,4.492249698437393,-0.7703830869999997,680.4702769956808,0.6276000000000002,7.039281,12.81756574526973,1.0,1.0,-1
Pb9(Br5O2)2,mp-28041,85,-4.062157397826087,6.637694501147839,-1.1592986628260875,1364.8356071093895,2.9018,8.648296,12.562466,2.0,1.0,-1
Tl3AgI5,mp-28043,190,-2.437280456388889,6.5848037935919965,-0.488660676574074,1367.346966828099,1.0507,10.809415258618202,13.512748,1.0,1.0,-1
Sb2S3,mp-2809,62,-4.3827542459999975,4.27822535984747,-0.6473598298749991,527.4243234630642,1.3091,3.87034,12.133897,1.0,1.0,-1
Au2Se2O7,mp-28095,32,-4.809439351818182,6.100338606602298,-0.8767807775852281,361.4052159914103,1.3063000000000002,4.297599,11.587503,2.0,1.0,-1
TlCdCl3,mp-28218,62,-2.8413087010000004,4.988942100893421,-1.4320895669560003,563.3760196855177,3.3343,4.045719999999998,15.168951000000002,1.0,1.0,1
TlCdBr3,mp-28219,62,-2.5217162675,5.757789325004091,-0.8826517955000004,641.9828165271489,2.9081,4.219797,15.781387,1.0,1.0,-1
Bi4Te3,mp-28229,166,-3.7424029314285714,8.069002640435489,-0.17239721285714285,250.80358977302743,0.25570000000000004,14.474151029749686,14.47415118452799,2.0,1.0,-1
TlSbS2,mp-28230,2,-4.02438958,5.56997913901362,-0.6652310915625006,465.3978373180525,1.5268999999999997,6.320538,11.96519603487118,2.0,1.0,-1
CdI2,mp-28248,186,-1.90947056,4.982262459980731,-0.58583223,244.11500687591632,2.4364,4.334895083083903,15.00053,2.0,1.0,-1
OsBr4,mp-28301,61,-3.63630535775,5.179525439724613,-0.08129723574999942,1307.639799517628,0.0,6.433247,15.464289,1.0,1.0,-1
Ta2NiS5,mp-28308,63,-7.198033665625,5.6025080341901266,-1.340453506328125,344.35672421505615,0.0,6.8189980946192525,15.211997,2.0,1.0,-1
TlI3,mp-28329,62,-2.0763309175,5.550622733179394,-0.3429082112500001,700.1563546276998,1.8526,6.664723,10.605474,0.0,1.0,-1
Tl3Cd2I7,mp-28432,55,-2.26805400125,5.63408405462417,-0.6348184375000002,1017.5900323810213,1.946,4.590588,15.452172,1.0,1.0,-1
Re3(TeI)7,mp-28464,2,-4.276473172058823,5.866164251051277,-0.1585451502941177,1324.8569705977993,0.9005999999999998,11.160404,12.435748540432739,0.0,1.0,-1
Ta4SiTe4,mp-28509,55,-7.793321289722222,8.059766971376376,-0.5233625941666671,1040.258514681837,0.0768999999999993,4.83555,19.280829,1.0,1.0,-1
CrInBr3,mp-28532,14,-4.1174182455,4.376033208199131,-0.6543160815,617.0451077727013,0.0,4.295885,15.155060999999998,1.0,1.0,-1
WI3O,mp-28573,136,-4.0518655950000015,5.096347649845788,-0.5668996382500004,756.6443166478865,0.9198,3.86775593,13.98673533,1.0,1.0,-1
NbTe5Pd,mp-28616,62,-4.7685317889285725,6.6637891392367985,-0.3402901460714288,834.6081404634599,0.0,3.777731,15.778797,2.0,1.0,-1
Ta(NiTe)2,mp-28667,62,-6.310209587999999,8.813693483073898,-0.3692790180000003,417.15358612056366,0.0,3.576477,18.023807,2.0,1.0,-1
Nb2Te6I,mp-28745,14,-4.893505527777778,5.903702329176133,-0.3839023861111117,1213.196592080059,0.6360999999999999,9.383068,14.285499,2.0,1.0,-1
Nb3GeTe6,mp-28754,62,-5.8460899710000005,6.50676813391075,-0.4674151154999997,1140.2000191767575,0.0,6.531463,14.913854999999998,2.0,1.0,-1
TlBS3,mp-28809,14,-4.664688314,4.502134236531832,-0.7726854437083333,459.403536549856,1.7414,5.831758,12.170077,2.0,1.0,-1
Pb(IO3)2,mp-28857,60,-4.643133351944448,6.227450424532652,-1.0615038950000004,594.0981071361819,2.7064000000000004,5.639743,17.056504,1.0,1.0,-1
MnInBr3,mp-28912,62,-4.1172430685000005,4.556818649766226,-0.7524091044310346,596.852969149175,1.6361,4.017343,15.500293,1.0,1.0,-1
Tl5Se2Cl,mp-28920,130,-3.1100550603125,7.871390291109713,-0.6033127063059371,1025.5040684530843,0.5641000000000003,8.771044,13.330143,2.0,1.0,-1
Ta2Te5Pd3,mp-28934,62,-5.91843453675,8.205928808937486,-0.4212640027500001,1067.7692801939106,0.0,3.743682,18.842242,2.0,1.0,-1
BiTeCl,mp-28944,186,-3.557595028333333,5.448655034760902,-0.795199622753333,226.76274817869202,1.5598,4.302992533228125,14.141645,2.0,1.0,-1
Ta4FeTe4,mp-28964,55,-7.9955196394444465,8.358332638174279,-0.3872621816666677,1025.1595056253354,0.0,4.860323,19.263697,1.0,1.0,-1
Nb2SiTe4,mp-29072,14,-5.953964988214286,6.146944652021874,-0.4966610139285714,782.6493483749196,0.26810000000000045,6.403755,15.953383220299134,2.0,1.0,-1
Nb2GeTe4,mp-29073,14,-5.822144427142858,6.183431628771179,-0.4794527621428578,825.8909428238969,0.1885000000000004,6.54705,16.374095252940755,2.0,1.0,-1
Ta3SeI7,mp-29116,186,-5.031497964090909,6.680978591126987,-0.5099222665767048,750.6798631064772,0.5787,7.643714430187066,14.835946,2.0,1.0,-1
Ta3TeI7,mp-29117,186,-4.938762459545455,6.710127226754088,-0.4492422663636365,771.4925752767815,0.5511000000000004,7.6876014577087055,15.073683,2.0,1.0,-1
V(HgO2)2,mp-29189,14,-5.0565528889285725,7.38473882317758,-1.4862773639285716,928.4400698137707,1.2392999999999998,3.738992,16.875051000000006,2.0,1.0,-1
Tl4PbI6,mp-29212,55,-2.6888710586363644,6.405994983935914,-0.6612951786363636,926.0040008918961,2.3258,4.680317,19.543549,1.0,1.0,-1
GeAsSe,mp-29249,52,-4.433978337083333,4.441143581665362,-0.17462575786458304,677.5695661479848,1.4956,5.147121,12.677036,2.0,1.0,-1
Te6Br2O11,mp-29251,63,-4.971824691315789,5.4415501877635455,-1.348878437828947,672.2055258520409,2.5327,6.968580304367956,15.938436,1.0,1.0,-1
TlGeI3,mp-29288,62,-2.7723641760000004,5.686391015996473,-0.4610204400000001,768.288708546055,1.9175000000000004,4.454665,16.567181,1.0,1.0,-1
InI2,mp-29312,52,-2.4467990691666666,4.361795190855188,-0.5135627491666664,1122.6926677429806,1.7858,8.546789,11.605143,0.0,1.0,-1
Ta3Br7,mp-29412,64,-5.5972821545,5.760291866609792,-0.8941002875000009,1270.9071753308576,1.2682,10.323435941772923,11.941271,2.0,1.0,-1
TlFeBr4,mp-29423,52,-3.56853609125,4.30951927195203,-0.6719757545833337,893.6997859245662,0.0927,7.7971,10.738095,0.0,1.0,-1
Ta(TeBr3)2,mp-29427,2,-3.7866080222222216,3.992648513593632,-0.6792814966666667,761.5711074211258,1.2144,7.667913,13.49609381357843,1.0,1.0,-1
Pd(Se3Cl)2,mp-29469,14,-3.511848264444444,3.914041871501498,-0.32706463895361104,552.4487341785014,1.3453999999999997,4.953765,13.270157521675769,1.0,1.0,-1
MgInBr3,mp-29483,62,-3.0145776040000003,4.155465016565667,-1.1620289240000001,605.5354236290153,2.0596,4.010462,15.658998,1.0,1.0,-1
WBr2,mp-29498,64,-5.9035638311111125,5.816491026869925,-0.4929039811111109,1177.2890421860554,2.4659,10.046939025097146,12.122426,2.0,1.0,-1
LiAuI4,mp-29520,14,-2.3231521825,5.433153110501896,-0.4433430380555557,434.9282197333332,0.7861000000000002,4.469893,15.084270459341544,2.0,1.0,-1
GaTeI7,mp-29541,7,-2.1779729322222217,3.8348360707812166,-0.3069190724999997,940.2077836404789,1.8822,7.435822,16.979286989852373,0.0,1.0,-1
MoBr2,mp-29555,64,-5.39663288,4.350222591615392,-0.6901341766666668,1171.4698351942075,2.1220000000000003,10.03231543982689,12.100075,2.0,1.0,-1
CuSe2Br,mp-29567,14,-3.39655775625,4.381024655203412,-0.2145687149218749,456.9128894601088,0.8881999999999999,4.99503,12.613941325063472,2.0,1.0,-1
Ta3(Se4Br3)2,mp-29589,2,-5.01423055382353,5.0725602543548245,-0.6988079684558829,1082.8633008244835,0.0,7.730344,13.040102522173205,1.0,1.0,-1
Nb3TeI7,mp-29689,186,-4.553735368181818,5.577519084407495,-0.5432531540909092,770.8866914021022,0.5139,7.733544376474477,14.883420999999998,2.0,1.0,-1
Tl2Te2O5,mp-29690,14,-4.957978145277779,6.6981107530186055,-1.3759520159722218,737.7486980917014,2.752,7.494025,12.26095,2.0,1.0,-1
Hg3PO4,mp-29709,14,-4.4261687328125,8.159774994708018,-1.5127951288839283,567.1559579363095,0.8446,5.145749,14.536431901493742,2.0,1.0,-1
Hg4P2O7,mp-29710,13,-4.949524622692309,7.0981571560598855,-1.7371437408379125,456.79174881874366,1.9381,5.038419,12.433704121902295,2.0,1.0,-1
TaTeBr9,mp-29716,11,-3.3966588781818183,3.663596224594141,-0.6936209309090909,931.6033352142218,2.2297,7.316396000000001,12.508734,0.0,1.0,-1
Bi2SeO5,mp-29839,39,-5.65274778375,7.127365328882741,-1.5897093535742182,537.6430144444957,2.8776,8.76626423182515,11.613008,2.0,1.0,-1
Bi3Se4Br,mp-29857,12,-3.834197574375,6.982215608113427,-0.4228631517968751,486.43835216440254,1.0935,10.773014350268406,12.203231221484337,1.0,1.0,-1
Hg2MoO4,mp-29893,14,-4.9680917835714276,6.755863731580996,-1.4102824071428577,551.6734693159854,2.1349,5.289485,11.197145019532078,1.0,1.0,-1
Bi2Te7Cl8,mp-30097,2,-3.1582644367647057,4.696825388129456,-0.8162654400635293,1127.6563399239046,0.8435999999999999,5.598708,15.518836240903115,1.0,1.0,-1
AuF5,mp-30103,62,-2.8842249583333337,5.161419262657849,-1.1547862568250002,751.4346136990338,0.7890000000000001,5.024939,15.390608,0.0,1.0,-1
Hg2Mo2O7,mp-30136,13,-5.7145033181818174,6.5907571887885865,-1.627566493522727,355.2771454012889,2.2203,3.99525885,14.531536510326806,2.0,1.0,-1
Hg2SeO3,mp-30286,14,-3.735840602916667,7.134611542289653,-0.929129167265625,491.68429617535,2.1898,5.280052,12.28809473212678,1.0,1.0,-1
BaCu,mp-30428,194,-3.08261266,4.510555040852099,-0.07352391000000003,295.80170147940703,0.0,4.510180471429164,16.791219,2.0,1.0,-1
TaS3,mp-30527,11,-6.8661803870833324,5.726601602089683,-1.2969935794270846,482.1776801467412,0.0,3.364038,15.094649791756845,2.0,1.0,-1
TlGeS2,mp-3075,62,-4.2064164975,4.992839790237572,-0.7237513553125003,907.6972723333536,1.7633,6.743376,14.531274,1.0,1.0,-1
Li13Sn5,mp-30769,164,-2.8853290338888886,3.484085279607199,-0.392892559351852,325.89569239963026,0.0,4.692528471143995,17.08969,2.0,1.0,-1
Hg4As2O7,mp-30929,62,-4.2679323355769245,7.308125985337499,-1.1715772162500002,967.2214286847952,1.1358,7.539447,12.485596,1.0,1.0,-1
HgClO3,mp-30937,14,-3.450446762,4.8310282748399676,-0.5915412124020001,781.0536097755594,3.0919,6.499923,15.497494852772979,0.0,1.0,1
CuTe2Cl,mp-30971,14,-3.3282543575,4.987957536594158,-0.4183394808150003,471.6650232369519,0.6017999999999999,5.162165,12.411599583825009,2.0,1.0,-1
CuTe2Br,mp-31036,14,-3.208892989375,5.224529778257015,-0.2032092218749999,506.8198877189172,0.7912999999999997,5.228464,12.775897526879001,2.0,1.0,-1
CuTe2I,mp-31037,14,-3.09796644625,5.458839107636298,-0.12051115999999995,542.2544983591453,0.8797000000000006,5.232337,13.246577709212179,2.0,1.0,-1
Tl2TeBr6,mp-31076,128,-2.592956645555556,5.181752903858785,-0.6276048533333333,651.0383671629519,2.2372,7.6259929999999985,11.194734,0.0,1.0,-1
PPdSe,mp-3123,60,-5.079910935,5.525360281270464,-0.3835512186383928,520.1671648086946,0.8557000000000001,5.866509,14.985614000000002,2.0,1.0,-1
In5S5Cl,mp-31263,11,-3.879510206818182,4.632884222909605,-0.9361266648986372,551.8790578894861,1.3680000000000003,3.979718,15.321096230945615,2.0,1.0,-1
NbI5,mp-31487,14,-3.3652648020833333,4.605929278975797,-0.4117034495833334,1049.016388372185,0.5982999999999998,6.591403999999999,15.280479649527528,1.0,1.0,-1
Sb2Te4Pb,mp-31507,166,-3.7087102085714285,6.668357078889525,-0.2024454557142857,239.33590970151954,0.3028999999999993,14.385909789248679,14.385909950698874,2.0,1.0,-1
Ni2SbTe2,mp-3250,194,-4.655408723,7.716517185087078,-0.2602334309999996,212.7597604357396,0.0,3.938334612636793,15.839216,2.0,1.0,-1
Ge2Sb2Te5,mp-3534,164,-3.781222871111111,6.013807771165062,-0.09004922222222217,283.5211198070204,0.026499999999999524,4.264832125683847,17.999105,2.0,1.0,-1
Sn(BiTe2)2,mp-38605,166,-3.7359750171428567,7.114758679476173,-0.25556870357142863,244.3796124683357,0.4550000000000001,14.329265748894812,14.32926592072113,2.0,1.0,-1
TlGaS2,mp-4016,15,-4.0517992484375,5.3853925887740335,-0.967867194375,834.3378212582214,1.9446000000000003,7.409098095293987,15.42691222848072,2.0,1.0,-1
Hg3AsO4,mp-4445,14,-3.8806614471875,8.0845120440501,-1.0615587753125002,608.5430245422879,0.5785,5.294838,14.702154734291467,2.0,1.0,-1
Tl2SeO4,mp-4449,62,-4.844053782857143,6.4266106540273205,-1.2437853096205356,570.2287799336392,3.2653000000000003,5.989996,11.681761,1.0,1.0,1
CuSbS2,mp-4468,62,-4.36802289375,4.898485394324236,-0.5744759828125003,338.22554465211607,0.7368999999999994,3.824909,14.449885,2.0,1.0,-1
TlAsS2,mp-4988,14,-4.088924071875,4.936879270515052,-0.5972362921875001,924.1256057280373,1.8267,6.319629,13.035221537969349,2.0,1.0,-1
TaSe2,mp-500,194,-7.093516928333332,7.856741170243508,-0.8103167332291659,143.2409038208091,0.0,3.4742215579920925,13.70318,2.0,1.0,-1
Si(PbS2)2,mp-504564,14,-4.812965952142856,5.145829885681517,-0.9925991482142856,736.7093128929815,2.1705,6.6994289999999985,16.979661613357788,2.0,1.0,-1
InTeCl,mp-504630,14,-3.2460015954166668,4.501929864760925,-0.86305638317,819.9428508861713,1.6633,7.343285000000002,14.384641,2.0,1.0,-1
Ta4Co2PdSe12,mp-505133,12,-6.4235762431578936,7.136234635229869,-0.6983885772697369,441.0889698862764,0.0,7.2161737694177654,19.486877158333296,2.0,1.0,-1
Nb3SiTe6,mp-505137,62,-5.941112266749999,6.382215208956647,-0.4822087947500002,1116.0825773621796,0.0,6.418526,14.940604,2.0,1.0,-1
NbTe4Ir,mp-505164,31,-5.65583196375,7.969474415290768,-0.4036754337499993,663.0287429490318,0.0,3.824614,13.61997,2.0,1.0,-1
Ta3SiTe6,mp-505206,62,-6.372676748250001,7.96475586863241,-0.3868314992500004,1114.5897688388916,0.0,6.409516,15.025444,2.0,1.0,-1
CdInBr3,mp-505222,62,-2.5071284615,4.9059799311838015,-0.7900578395000001,632.186664579506,2.2578,4.199104,15.681056,1.0,1.0,-1
AuBr,mp-505366,138,-2.59140174625,7.209653513094369,-0.13599770624999996,255.07711036667843,2.0580000000000003,4.37978,13.297405,1.0,1.0,-1
AsSeI,mp-505373,14,-3.397585446666667,4.683893021127653,-0.1712379474479165,398.1783840825899,1.3285,4.014769,13.798661639982988,1.0,1.0,-1
Pb3(ClO)2,mp-510030,62,-4.73318074,6.8002146995305015,-1.5707558684314284,707.6650238247809,2.7960000000000003,5.9460739999999985,12.125103,1.0,1.0,-1