pretty_formula,task_id,spacegroup.number,final_energy_per_atom,density,formation_energy_per_atom,volume,band_gap,min_abc,max_abc,Dimension,Dim,is_uv
ZrSe3,mp-1683,11,-5.80695009125,5.2059993645546365,-1.0480913255078121,209.3083274720436,0.5570000000000004,3.788102,10.156126586596091,2.0,1.0,-1
TaS2,mp-1690,164,-7.736195963333333,5.921970735880051,-1.468276842083334,68.72060201746828,0.0,3.3782864353948736,6.952858999999999,2.0,1.0,-1
Tl4GeS4,mp-17207,9,-3.8160645083333335,6.1527301270112575,-0.7092201480555558,549.7228321125605,1.964,7.834232291374568,8.772344469809937,1.0,1.0,-1
Au3F8,mp-17407,14,-3.234051338636364,6.790501190324576,-1.3080471849563635,363.32893230520943,0.5518,5.597077,10.941336,2.0,1.0,-1
Tl2Fe3S4,mp-17488,72,-5.5539864294444445,6.597796692594743,-0.6622893108333341,354.64932192873937,0.0,8.742218393991939,8.742218393991939,2.0,1.0,-1
Tl2Cu2SnS4,mp-18240,72,-4.031328363888889,6.129355431106987,-0.606522739166667,424.161231099308,0.2965,9.374161513483807,9.374161513483807,2.0,1.0,-1
TlSe,mp-1836,140,-3.20416196125,7.714674112607662,-0.27537973242187475,243.95203843565983,0.35809999999999986,6.845507665546948,6.845507665546948,1.0,1.0,-1
Ba2N,mp-1892,166,-4.463278773333333,4.403707634896102,-0.5331408241266669,108.84745516340612,0.0,7.962321959524433,7.962322207635785,2.0,1.0,-1
Te,mp-19,152,-3.14330093,6.0484105835889945,0.0,105.09444521163715,0.5751999999999997,4.5123744196963536,5.959899,1.0,1.0,-1
TiTe2,mp-1907,164,-5.424176903333334,5.9677182261775625,-0.6968122777777784,84.32948309954074,0.0,3.779460543355493,6.816936,2.0,1.0,-1
Zr2Cu,mp-193,139,-7.1972535366666675,6.968518148194282,-0.13238422666666713,58.61829422874481,0.0,6.0592384399454025,6.0592384399454025,2.0,1.0,-1
Tl2WO4,mp-19341,164,-6.028258866428572,7.173078214792937,-1.697816822857143,304.0025196282105,3.385,6.4400631114600095,8.463817,2.0,1.0,1
Ni(AgO)2,mp-19405,166,-4.0995299880000005,8.221194800002008,-0.5450140631666671,61.893273885618235,0.0,7.972415803751581,7.972416127799151,2.0,1.0,-1
TaTe2,mp-1967,12,-6.410950246296296,8.612117523908866,-0.3628237496296297,756.8597762277693,0.0,9.495522973801338,9.668823567283146,2.0,1.0,-1
InS,mp-19795,58,-3.93545777125,4.771415569597188,-0.8231209728124997,204.47178088912392,1.5450999999999997,4.010446,10.725346,2.0,1.0,-1
TaNiTe2,mp-19810,53,-6.36505742125,8.732372562010344,-0.3839283787500003,376.3940539051756,0.0,6.26406,7.976555999999999,2.0,1.0,-1
ZrSiTe,mp-19917,129,-6.505000083333332,6.062739038952948,-0.7995615566666672,135.2533460636898,0.0,3.698621,9.887087,2.0,1.0,-1
PbO,mp-19921,129,-5.4547825675,8.470751469645759,-1.4756262981249997,87.50848721504977,1.7743000000000002,4.062481,5.302339,2.0,1.0,-1
NbCrN,mp-20133,129,-10.064635055,7.707258602800772,-0.82902682246,68.47438629747826,0.0,3.036771,7.42513,2.0,1.0,-1
NbTe4,mp-20196,124,-4.8541666480000005,6.575431837049563,-0.319264896,304.7142265164275,0.0,6.6133,6.967167999999999,1.0,1.0,-1
FeSe,mp-20311,129,-6.2548730925,5.619828229873189,-0.2719159136718749,79.66398961559156,0.0,3.688905,5.8541940000000015,2.0,1.0,-1
InTe,mp-20320,140,-3.22438058875,5.986866155889604,-0.2768882587499997,268.9517680638536,0.013799999999999812,7.090322416862223,7.090322416862223,1.0,1.0,-1
NbNiTe2,mp-20506,53,-5.986157990625,7.137357843804827,-0.4441470956250004,378.57534497061545,0.0,6.306336,8.024317,2.0,1.0,-1
NbInS2,mp-20621,187,-6.1305927425,5.506039018504012,-1.180850616562501,81.98721747143986,0.0,3.3854421948221183,8.260089,2.0,1.0,-1
PbSeO3,mp-20716,11,-5.454021018000001,6.645457817762373,-1.4649100272187503,166.99609289268602,2.8941000000000003,4.598017,6.758871550594965,2.0,1.0,-1
TiCu,mp-2078,129,-6.133154735,6.440936363493999,-0.1358053916666666,57.4468147444159,0.0,3.117007,5.912762,2.0,1.0,-1
CuTe,mp-20826,59,-3.6872353225,6.896081538150362,-0.0659815225,92.05384207491741,0.0,3.195561,7.128867999999999,2.0,1.0,-1
PbO,mp-20878,57,-5.43691616625,8.739853328560285,-1.4577598968749994,169.62816624417385,2.2292000000000005,4.816821,6.147622,2.0,1.0,-1
ZrTe3,mp-2089,11,-5.21104454625,6.4301127203565445,-0.7166436912499998,244.82786064203003,0.0,3.950031,10.427139084175726,2.0,1.0,-1
SnO,mp-2097,129,-5.7649688325,5.942455446379406,-1.637350170625,75.28545173175344,0.6296999999999997,3.870595,5.025226,2.0,1.0,-1
PbSO3,mp-21190,11,-5.841994124,6.19443377816386,-1.857467455375,154.01303269333644,3.2251000000000003,4.565639,6.50796169978965,2.0,1.0,1
FeTe,mp-21273,129,-5.86570214,6.996625048410066,-0.05905023499999995,87.07557914416442,0.0,3.65601,6.514508,2.0,1.0,-1
Sn4Pd,mp-2128,68,-4.480464811,7.732657088109309,-0.2368309650000001,249.64379691325885,0.0,6.529884,6.6866336342108665,2.0,1.0,-1
InSe,mp-21405,12,-3.5973967325,5.3901462787971,-0.473599128671875,119.39413982635901,1.0755000000000003,5.2305881625086865,6.20754262879225,1.0,1.0,-1
SnSe,mp-2168,63,-4.1706689475,5.924579875502123,-0.4179272811718753,110.80574967081628,0.6097999999999999,4.300997,6.377497487066225,2.0,1.0,-1
TlF,mp-2175,225,-3.837006635,8.090510190687077,-1.945905078095,45.84804124642541,2.3992,4.017401721467247,4.017401721467247,0.0,1.0,-1
TiSe2,mp-2194,164,-6.0741166200000025,4.69257943971707,-1.1116782960069451,72.8207923357004,0.0,3.5442620609094355,6.693806,2.0,1.0,-1
Pb3SO6,mp-22023,11,-5.840274375,7.105224799799348,-1.8317819860624995,350.4018736908094,2.9588,5.88815,8.330411377136485,2.0,1.0,-1
In(TeMo)3,mp-22061,176,-6.6227472292857135,7.0661243873617385,-0.2343878564285719,369.1558234454277,0.24109999999999945,4.6222910000000015,9.603087859030554,1.0,1.0,-1
Zr2Ag,mp-2221,139,-6.748477826666666,7.428326790577843,-0.10582540555555536,64.89770918241443,0.0,6.520661748011394,6.520661748011394,2.0,1.0,-1
TlInSe2,mp-22232,140,-3.54712793375,6.651771153359162,-0.520838017421875,238.2158194834697,1.1351,6.803928101522533,6.803928101522533,1.0,1.0,-1
SnS,mp-2231,62,-4.5106891375,4.9001342636386935,-0.7694082765625003,204.37625934004453,1.1111000000000004,4.0239720000000005,11.432652,2.0,1.0,-1
Pb3SO6,mp-22577,63,-5.82199545,6.420776911719222,-1.8135030610625,387.75433519577973,2.9131,6.031831,8.078921694148049,2.0,1.0,-1
InSe,mp-22691,160,-3.6302451725,4.94422408441454,-0.506447568671875,130.16236066724198,0.8635000000000002,9.269798122883367,9.269798130465679,2.0,1.0,-1
TlInTe2,mp-22791,140,-3.2133990625,6.877458588185832,-0.3634144200000001,277.374494175596,0.6498999999999997,7.1603578797994425,7.1603578797994425,1.0,1.0,-1
Te2Rh,mp-228,164,-4.942308643333333,7.9285424160550475,-0.3920053999999998,75.00094487861759,0.0,3.9624460890932007,5.515811,2.0,1.0,-1
TaTe4,mp-22817,124,-5.136412183,7.549772152970992,-0.25021591300000023,304.1178303372567,0.0,6.6207449999999985,6.937902,1.0,1.0,-1
AgF2,mp-2284,61,-3.341256153333333,5.315183658579106,-1.4500373963488886,182.28122084632503,0.0,5.327483,5.968428,2.0,1.0,-1
BiI3,mp-22849,148,-2.59764105875,4.78714895533529,-0.48212302,409.0992855970632,2.5587,8.926338614969186,8.926338796465268,2.0,1.0,-1
TlI,mp-22858,63,-2.60119896,6.546835313052712,-0.6583661625000001,168.05563545336312,2.3197999999999994,5.307803,7.087255621808557,2.0,1.0,-1
HgI,mp-22859,139,-1.1709067075,6.8375526799081765,-0.2570602175,159.06783815456168,1.8859,6.951978077166313,6.951978077166313,0.0,1.0,-1
CuI,mp-22863,129,-2.952523485,5.702227449972957,-0.14091384249999986,110.92172259415258,1.5715999999999992,4.113231,6.5561729999999985,2.0,1.0,-1
InBr,mp-22870,63,-2.865871465,4.7371828792103825,-0.6715663300000001,136.51298519443338,1.6191,4.692583,6.7171426483309125,2.0,1.0,-1
TlBr,mp-22875,221,-2.83836748,7.068918855673896,-0.8390777200000001,66.78109869790414,2.3615,4.0571199999999985,4.0571199999999985,0.0,1.0,-1
FeBr2,mp-22880,164,-4.355294073333334,4.536917402245608,-0.4406754200000004,78.93029552449933,0.5075000000000001,3.728001621235833,6.5578410000000025,2.0,1.0,-1
PbI2,mp-22883,166,-2.9214112366666662,5.112644211758223,-0.6678538033333332,149.7313959694829,2.4334,8.328713205312393,8.328713303123418,2.0,1.0,-1
RuBr3,mp-22892,193,-3.86871435875,4.413499916954566,-0.3224220400000002,256.4322351158238,0.0,5.939204,7.060848224940967,1.0,1.0,-1
PbI2,mp-22893,164,-2.92102081,5.357292104517278,-0.6674633766666668,142.89371196996424,2.3703,4.689420130757,7.50316,2.0,1.0,-1
HgCl,mp-22897,139,-1.61941049,6.256326938720108,-0.84064481913,125.29991694380631,2.8204,6.496311520029807,6.496311520029807,0.0,1.0,-1
CuBr,mp-22917,129,-3.1159303475,5.1555711925076695,-0.2478637424999999,92.40657153563906,0.9962,3.91375,6.032769,2.0,1.0,-1
BiClO,mp-22939,129,-4.824257753333334,7.213106012240296,-1.694407501503333,119.9091869411492,2.6391000000000004,3.913872,7.827791,2.0,1.0,-1
TeRhCl,mp-22945,12,-4.644437345,5.830210987534567,-0.7239507527533332,151.4986268210821,0.8650000000000002,6.7568400390189804,7.054838590970384,2.0,1.0,-1
BiTeI,mp-22965,156,-3.222545913333333,6.151015975481927,-0.3700966283333334,125.12318883267449,1.3295000000000003,4.425194501710631,7.3780649999999985,2.0,1.0,-1
PbIF,mp-22969,129,-3.883044926666667,6.909090836228223,-1.6639749870633336,169.73032469128705,2.1662,4.235855,9.459698,2.0,1.0,-1
TlIO3,mp-22981,160,-4.304562808,6.533713544988087,-0.9800304077500002,96.39528367162657,3.0753000000000004,4.586399910677218,4.586400305797674,0.0,1.0,1
BiIO,mp-22987,129,-4.433602855,7.379320758346733,-1.21369872375,158.36622268956174,1.4843000000000002,4.0283050000000005,9.759282,2.0,1.0,-1
PbBrCl,mp-22997,62,-3.4282815516666667,6.130200109302025,-1.2271400227533336,349.4949529575999,3.4812,4.649264,9.473128,2.0,1.0,1
PbBrF,mp-23008,129,-4.081057245,7.34736775378373,-1.8243493303966671,138.36111541632968,2.8629999999999995,4.222418,7.760534,2.0,1.0,-1
BiSeI,mp-23020,62,-3.3859784825,6.325858300086527,-0.4159923482812502,435.5874447609272,1.6111,4.2739910000000005,11.277488,1.0,1.0,-1
SbSI,mp-23041,62,-3.5753156508333332,4.662200824088629,-0.5333144102083333,399.9503836663137,1.6748999999999996,4.110742,10.78673,1.0,1.0,-1
PbICl,mp-23053,62,-3.2253909583333336,6.443454688447287,-1.0618874044200002,380.9537870354672,2.7509,4.632378,9.872184,1.0,1.0,-1
YCI,mp-23062,12,-6.5983422083333325,4.900237993988967,-0.8592540655555551,154.40299200435595,0.0,4.155588245181781,10.780929018667452,2.0,1.0,-1
BiBrO,mp-23072,129,-4.640111973333333,7.2942964094684895,-1.3825698670833326,138.81296625574095,2.3083,3.95291,8.883747,2.0,1.0,-1
BiOF,mp-23074,129,-5.40060968,9.037539932181831,-2.2151930424800006,89.65611014781229,3.1303,3.797491,6.217079,2.0,1.0,1
BiPbClO2,mp-23084,63,-5.151706990999999,7.8367370925051185,-1.6821343321519988,204.9552390200156,2.0992999999999995,5.654331,6.9559734657149175,2.0,1.0,-1
CuBiSeO,mp-23116,129,-4.76938956625,8.627813976854387,-0.8366850846484377,141.45518875529484,0.3449999999999997,3.949713,9.067505,2.0,1.0,-1
SbPbClO2,mp-23138,63,-5.230551793,6.701383844347715,-1.713185748152,196.4541341461684,1.9131,5.505813,6.8980509987590715,2.0,1.0,-1
TlRe3(Se2Cl)2,mp-23144,2,-6.3439402735,7.372703486645436,-0.7252820335894995,517.9118605388953,1.5198,6.685629,9.164499474660088,2.0,1.0,-1
TlCl,mp-23167,221,-3.07572385,6.709635892345643,-1.26797187163,59.3560592748602,2.5887,3.900812,3.900812,0.0,1.0,-1
IO2,mp-23170,14,-4.04511860125,4.975168460097908,-0.7066707504166665,424.2913015094889,1.5220999999999996,7.011995,8.334021230433482,2.0,1.0,-1
HgBr,mp-23177,139,-1.3954059625,6.678630234716551,-0.42510251,139.48106979354824,2.4641,6.66579403673816,6.66579403673816,0.0,1.0,-1
Nb2C,mp-2318,164,-10.25826145,7.645160328135297,-0.4484645233333341,42.96752056475237,0.0,3.1479202692636608,5.006823000000002,2.0,1.0,-1
TlI,mp-23197,221,-2.572907575,6.979307319030446,-0.6300747775,78.82104329634487,2.2503,4.287598,4.287598,0.0,1.0,-1
InI,mp-23202,63,-2.6045138375,5.133000138027742,-0.4666656649999998,156.39571163708274,1.7440000000000002,4.952369,6.938735012150918,2.0,1.0,-1
CuBr2,mp-23219,12,-2.765508543333333,4.4577848621327,-0.3078219600000001,83.2000767538018,0.0,4.223778686854935,7.060665716812968,1.0,1.0,-1
TiI3,mp-23223,193,-3.91662381,4.268602662494735,-0.7997413445833335,333.4461275758636,0.0,6.4195910000000005,7.744508287683407,1.0,1.0,-1
CuBr,mp-23227,194,-3.07768415,4.8653750732541035,-0.209617545,97.9181771260451,0.43210000000000015,4.132840993828095,6.619653,2.0,1.0,-1
FeBr3,mp-23232,148,-3.70833240625,4.425671475225835,-0.36313678125000015,221.78959629264043,0.02959999999999985,7.383305544830782,7.383305733398421,2.0,1.0,-1
PtCl2,mp-23290,166,-3.628095594444444,5.133821904438362,-0.7685590399511111,516.2081519926676,1.8306,8.620613353886425,8.620613396164918,0.0,1.0,-1
IO3,mp-23315,2,-4.186065240625,4.8561686091671605,-0.6208129853125,239.22786852119404,1.9146,5.333289,6.905297656957664,2.0,1.0,-1
BiSCl,mp-23318,62,-3.9327221583333336,5.40046084811904,-1.0604304404616671,340.07201086352393,1.9702000000000008,4.02616,10.493094,1.0,1.0,-1
BiSBr,mp-23324,62,-3.762380565,5.821355270368207,-0.7623969927083342,366.2027087160548,2.0352,4.088663,10.577375,1.0,1.0,-1
Hg3Cl4O,mp-23333,198,-2.1849883325,5.815850396381856,-0.9134745236612504,867.5013991057318,1.4906,9.537255,9.537255,0.0,1.0,-1
TlBrO4,mp-23404,62,-3.9980414420833337,4.974698536701701,-0.5011678762499999,465.02571240453307,3.0301,6.271966,9.392518,0.0,1.0,1
InSn2I5,mp-23417,140,-2.76268619875,5.259986548837599,-0.4638248843750001,623.0259698702051,1.4497,10.0528150813592,10.0528150813592,2.0,1.0,-1
Re(AgCl3)2,mp-23472,148,-3.781856398888889,4.314390775990357,-0.9337736153214816,236.57320822932567,0.8394999999999999,7.166887301510051,7.166887903557582,2.0,1.0,-1
InSn2Br5,mp-23507,140,-3.117511980625,4.728202031748942,-0.7480794631249998,528.0330744104576,2.3079,9.517207227506502,9.517207227506502,2.0,1.0,-1
BiSI,mp-23514,62,-3.5850846741666667,5.902741328553455,-0.6227390768750004,414.0416119742951,1.8826,4.2081,11.071342,1.0,1.0,-1
InPb2I5,mp-23520,140,-2.7861973675,6.114256117018559,-0.5615672493749999,632.108396367293,1.8626000000000005,10.060666127055553,10.060666127055553,2.0,1.0,-1
In(IO3)3,mp-23559,148,-4.548020459230768,5.032243907188583,-1.0453503981730763,422.06138784124136,3.1911,7.576574315915736,7.576574616013229,2.0,1.0,1
PdSe2,mp-2418,61,-4.3390517075,5.936576683260865,-0.28181678572916624,295.7575857498652,0.008500000000000174,5.794418,8.585061,2.0,1.0,-1
CoO2,mp-25234,166,-5.736742343333333,4.52235457794567,-1.1615260991666656,66.77766083966264,0.0,2.8198280083709,5.061920398911957,2.0,1.0,-1
NiTe2,mp-2578,164,-4.2460386733333335,7.550132161921391,-0.22379249333333345,69.03617609195001,0.0,3.8994538052405487,5.242501,2.0,1.0,-1
Zr2Pd,mp-266,139,-7.91312693,7.845685271874635,-0.4880325733333327,61.138904055986394,0.0,5.919093093558423,5.919093093558423,2.0,1.0,-1
HgPS3,mp-27178,2,-3.810953571,4.241494369862279,-0.5837664055892866,256.63418656812854,1.9798,6.377665,7.7821958589062765,2.0,1.0,-1
CrI2,mp-27215,12,-4.538336703333333,4.469788261026912,-0.304645803333333,113.60744313344965,0.27790000000000026,4.402546717025613,8.096375499187339,2.0,1.0,-1
TlHg5Cl11,mp-27386,12,-2.075373779411765,4.9455317920305015,-1.03581992358,536.3237421992102,2.7263,6.688746027288673,9.640435463799184,0.0,1.0,-1
AlPd5I2,mp-27393,139,-4.51604385125,7.734447487922782,-0.4294175874999997,174.5226661232389,0.0,10.78168951905804,10.78168951905804,2.0,1.0,-1
IrBr3,mp-27397,12,-3.74527952875,5.928656696405218,-0.30797701874999994,241.9553079983057,1.6317,6.47685424611825,6.974082271497808,2.0,1.0,-1
Te2AuCl,mp-27490,63,-3.10832643875,7.194598031918937,-0.4047428445649999,225.08869581618268,0.0,6.5220074264772965,8.80597,2.0,1.0,-1
SiTe2,mp-2755,164,-3.8603379933333333,5.255403661801774,0.043633966666666524,89.50913574354044,0.0,3.7893541490151055,7.197908999999999,2.0,1.0,-1
Li8Pb3,mp-27587,166,-2.7287401890909093,5.315384492278182,-0.3278925396969696,211.536437057784,0.0,11.100741239813225,11.10074153803087,2.0,1.0,-1
NiBr2,mp-27637,166,-3.4133387933333332,4.972529824339205,-0.3953422066666666,72.96690490036616,0.4774999999999996,6.588868851209668,6.588868890011168,2.0,1.0,-1
NiI2,mp-27638,166,-3.069542123333333,5.584908625525181,-0.1268214866666663,92.91510009711548,0.0,7.244777896943767,7.244778046505082,2.0,1.0,-1
IrCl3,mp-27666,12,-4.09451405625,4.889512785288924,-0.9445182186950004,202.80021103160462,1.9402,6.142372238200887,6.515188846710278,2.0,1.0,-1
KTlO,mp-27716,12,-3.779381916666667,5.793272210401878,-1.2068094514166667,148.75128317526259,1.2280000000000002,6.390492463527987,6.8246502779633325,2.0,1.0,-1
TeAuI,mp-27741,14,-2.785563249166666,6.725409382934577,-0.1384982208333335,445.88232775853584,1.0921999999999996,7.433025,7.891196788603424,2.0,1.0,-1
PdI2,mp-27747,14,-2.99296725,5.45671607077568,-0.25033157000000017,438.48660625281616,0.9557000000000002,7.088158,8.977339,2.0,1.0,-1
TiBr2,mp-27785,164,-4.760888696666666,4.60203699739724,-1.0377736644444446,74.93474103993343,0.0,3.498868370235868,7.068014,2.0,1.0,-1
Nb2Se,mp-27793,12,-8.412041799999999,7.711559572552706,-0.5125346141145831,228.05530197361432,0.0,7.263975231383156,9.365978365873213,2.0,1.0,-1
TlAgI2,mp-27801,140,-2.51002893875,6.5962552932416045,-0.4494703854166669,284.9997257200932,1.8257000000000003,7.1905826014087335,7.1905826014087335,1.0,1.0,-1
Tl2PtCl6,mp-27834,225,-3.2114437655555563,5.250926594442539,-1.1761860399511108,258.22948321044305,1.8868,7.1478200103225875,7.1478200103225875,0.0,1.0,-1
RhBr3,mp-27871,12,-3.5140763875,4.757663080540303,-0.4453045149999997,239.16352798408542,1.3144,6.438652157616918,6.9950913260031875,2.0,1.0,-1
Bi2Te2S,mp-27910,166,-3.926623578,6.893318035433272,-0.4186915086250004,169.88262918593634,0.6276000000000002,10.931241113438217,10.931241246633293,2.0,1.0,-1
AuSe,mp-2793,12,-3.4857636225,8.223421519004054,-0.10086711367187506,111.43460086012756,0.31699999999999995,5.107030380008033,6.44855306023863,2.0,1.0,-1
Pb2ClO2,mp-27942,139,-4.857114702,7.766335481224687,-1.4230194911519995,103.02590457827546,0.0,7.007335290714867,7.007335290714867,2.0,1.0,-1
HgBrO3,mp-27994,15,-3.3409594945000003,5.519750242286338,-0.4054388322500003,395.28899477700963,3.2228000000000003,9.072439002886544,9.882051832078195,0.0,1.0,1
MnI2,mp-28013,164,-4.523713016666666,4.463106048543079,-0.4538024498850574,114.8721147808764,1.1837,4.164357291198966,7.648706,2.0,1.0,-1
SbTeI,mp-28051,12,-3.160608115,5.329753169156712,-0.2285031866666666,234.45808163285042,0.8925999999999998,7.705226253408072,9.757175471450024,1.0,1.0,-1
PbBr2,mp-28077,62,-3.2390330025,6.128998834593923,-0.9101996191666668,397.73616422631324,3.0529,4.753942,10.157509,2.0,1.0,1
Hg2IO,mp-28136,15,-2.04753863625,8.114685396053906,-0.4532789328125,445.3518417762768,0.9849,7.0381679270967235,9.659920123664481,2.0,1.0,-1
Tl6SCl4,mp-28242,128,-3.1591733990909088,6.537998556456821,-1.0993268851059093,711.2415998473401,1.7993999999999994,8.708905999999999,9.377562,0.0,1.0,-1
LiBiO2,mp-28253,72,-5.420323584375,6.9395312217553435,-1.8477515558333328,237.29624629898342,2.5090000000000003,9.980189374837083,9.980189374837083,2.0,1.0,-1
PtI2,mp-28319,14,-3.202837370833333,6.6672644977406375,-0.1631930574999997,447.20245542592636,1.2521,7.060178,9.133865,2.0,1.0,-1
TlAuCl4,mp-28368,15,-2.760082185,4.841175613022179,-0.9849257805066666,372.6125945672607,1.7753,6.929083016333113,10.220520622149,0.0,1.0,-1
Tl3BSe3,mp-28490,11,-3.780611044285714,6.785807043319241,-0.31602745231398804,421.3087508830465,1.6664,5.865161,10.471297,1.0,1.0,-1
TaTe4I,mp-28691,2,-4.6092426091666665,6.235201564823457,-0.2834102816666668,435.8287312402955,0.7238999999999995,6.7531358369717465,9.21777554547524,2.0,1.0,-1
Si2Hg6O7,mp-28712,12,-4.415376251333333,8.313681139764226,-1.589218350583334,273.97884174632543,1.5795,6.248493484308036,7.172609122461992,2.0,1.0,-1
TaCoTe2,mp-28846,14,-6.644654050625,8.570470954757434,-0.33147972937500025,383.6902174975481,0.0,6.340121,8.539877676722543,2.0,1.0,-1
TaI2O,mp-29027,12,-6.28613526625,6.295539036541912,-1.4982681840624998,237.7868863899821,0.9265999999999996,7.533539390569084,8.583977856262795,2.0,1.0,-1