pretty_formula,task_id,spacegroup.number,final_energy_per_atom,density,formation_energy_per_atom,volume,band_gap,min_abc,max_abc,Dimension,Dim,is_uv
SbSO2F5,mp-560066,14,-4.928681496666666,2.8817714149638984,-2.3513400840638883,647.2486062785086,3.4749,5.95643,10.778421028152962,0.0,1.0,1
PNF2,mp-560275,33,-6.1157358506250015,1.7697170681978514,-2.0640212714578574,934.2984703759391,5.8161000000000005,7.52002,13.738377,0.0,1.0,1
SbPOF8,mp-560310,14,-5.04513664159091,2.8549233987733023,-2.7585590378946754,746.1758634837307,4.6921,5.60352,17.513242,0.0,1.0,1
Cs2Al2P2O9,mp-560387,2,-6.890738568000001,3.3363974556973286,-3.0027707449503294,261.65111977368724,4.9042,4.988099,8.240401933559612,2.0,1.0,1
Sb2SNF11,mp-560450,14,-4.628867494833333,3.1594200009171223,-2.274899761073,1048.169384071235,3.5649,8.309073,12.051955,0.0,1.0,1
AlTlF4,mp-5606,123,-5.266020435,5.761775532994148,-3.301115544126666,88.58045806830563,4.5343,3.697743,6.478351,2.0,1.0,1
RePbClO4,mp-560625,31,-6.899460675,6.236937284657958,-1.9860768026085711,262.43948326493353,3.3721,4.684515,9.601449,2.0,1.0,1
Al2SnCl6O,mp-560633,14,-4.39811543625,2.2902291794330973,-2.0711659518309995,1164.1185508199699,3.959,9.578244,12.827340097669705,1.0,1.0,1
SbI(ClF3)2,mp-560789,64,-3.6976956645,3.2405267352289453,-2.029294003366,888.676259250883,1.8658,8.218033046974258,13.247023,1.0,1.0,-1
Te7(OF5)6,mp-560802,148,-4.3029403718604655,3.822393617176795,-2.2077402942604647,677.331339348269,2.3684000000000003,10.770614154545132,10.770614669402113,0.0,1.0,-1
BaPb2C2(O3F)2,mp-560874,166,-6.676854447692307,6.161489104803178,-2.3604760284523083,191.27740787529763,4.1272,8.570749253010558,8.57074936600581,2.0,1.0,1
Sb2POF13,mp-561176,14,-4.850009057499999,3.0294602669522988,-2.7097675545759663,1178.4197114360181,4.0801,7.469936,15.0466,0.0,1.0,1
TaF5,mp-561197,12,-6.7579224700000005,4.812643741029091,-3.5978344201583337,380.83764516802717,5.5558000000000005,5.251346447620648,8.884277753534722,0.0,1.0,1
BTe3(OF5)3,mp-561226,176,-4.646608194318183,3.338770654522016,-2.36685624094394,722.7349910273947,3.8123,9.396133357961082,9.452574,0.0,1.0,1
AsCSF11,mp-561235,14,-4.535383731785714,2.5637315223350794,-2.179316557229644,849.7350968430162,4.5981,6.378019,11.917831188823323,0.0,1.0,1
AsCSCl2F9,mp-561244,14,-4.297821027321429,2.574422036325247,-1.9655680180610717,931.1141009828044,3.8104000000000013,7.866761,12.458829253144655,0.0,1.0,1
OsOF4,mp-561449,14,-5.486244592083334,5.004792841994076,-1.9603778497516664,374.554834170702,0.6909000000000001,5.645388,13.076165,1.0,1.0,-1
Hg2PO3F,mp-561472,72,-4.7844059735714275,6.254725514231465,-1.901806954787347,530.0687805636511,1.8889,9.026791022821676,9.026791022821676,2.0,1.0,-1
SbOF,mp-561533,61,-5.4811022439583335,4.871832824602719,-2.216029963105001,854.8814069102506,3.3334,5.751618,12.610486,2.0,1.0,1
TeF4,mp-561664,19,-4.2574565025,3.963945967336222,-2.4923562094519998,341.1501070402539,4.0184,5.575533,9.833743,1.0,1.0,1
PO2,mp-562065,15,-6.909892047083333,2.211525420575996,-2.275019780773809,378.2670489861448,4.5836000000000015,7.233591191981269,7.29814451536005,0.0,1.0,1
P2O5,mp-562613,161,-7.018614088214287,2.0262565767915097,-2.4393427929846934,465.300258795792,5.5533,7.7546559045685575,7.754656143706825,0.0,1.0,1
CoSb2S2(OF3)4,mp-562774,2,-4.988867192619048,3.0407469144611743,-2.395173693120477,719.2754614491744,3.1637,5.203447296138301,15.935328206889992,1.0,1.0,1
P2O2F3,mp-565711,158,-5.894539726666666,2.0782736895898286,-2.5260321464113606,1447.226019772886,5.3101,9.5403,13.234936178867846,0.0,1.0,1
TiCl3,mp-567330,163,-4.94311933125,2.521871748958713,-2.0288580945283337,406.20352433258387,0.0,6.112565620413249,12.553533,2.0,1.0,-1
ZrNCl,mp-568592,166,-8.00962597,4.198985265079451,-2.0916180385466654,111.27011177040369,1.7555999999999998,9.892713377798074,9.892714283751756,2.0,1.0,-1
ZrCl4,mp-569175,13,-4.964882231,2.4571655274672852,-2.252261323608,314.96891650035536,3.6229,6.3796940000000015,7.760452000000001,1.0,1.0,1
MgCl2,mp-570259,164,-3.6212896466666655,2.10483269634068,-2.2519623121733328,75.11361133116063,5.573799999999999,3.676830705467142,6.415652,2.0,1.0,1
TiCl3,mp-571424,15,-4.945243805,2.4734323739793598,-2.030982568278333,414.1585608397776,0.01929999999999988,6.1314537816097925,12.701450418853431,2.0,1.0,-1
ReO3F,mp-573051,13,-7.522540945666666,5.247897890343904,-2.2021262006546656,480.7118778257306,3.0425,6.323008,10.921253707347384,1.0,1.0,1
Ta2Hg2F11,mp-581413,15,-5.793428663166669,5.806663572882324,-3.130164165706,1111.9229401727216,1.3643,12.552234810224752,15.034355505657368,0.0,1.0,-1
Li3Sn2(PO4)3,mp-585408,148,-6.56899014825,3.1246315839159817,-2.522302372285715,577.3055391530395,2.8056,10.176194533069914,10.176195048539359,2.0,1.0,-1
RbPbF3,mp-605350,2,-4.5332920635,5.6410833076565625,-2.7423257547140003,411.7145987173428,4.2095,4.685139,17.836194393966753,2.0,1.0,1
ReOF4,mp-622116,15,-6.144372418333332,4.966792725971421,-2.4156402201683327,744.0809634232007,0.9323,10.032590471223472,14.89979566338552,1.0,1.0,-1
P2WO8,mp-624769,62,-7.2670409934090925,4.156512814094875,-2.41258445314935,597.3091804431982,2.5398,5.245589,16.932055,2.0,1.0,-1
Mn(ReO4)2,mp-627380,147,-8.251252075,4.450278999587159,-2.2207762168741065,828.8700964022519,3.1547,6.773802000000001,11.88671,2.0,1.0,1
Sr(AlCl4)2,mp-628726,13,-3.9961385140909087,2.082740343130919,-2.2496439025224246,678.0230338497063,5.2927,7.1079490000000005,12.939454051337096,2.0,1.0,1
CrF5,mp-639662,57,-4.79534155125,2.842188571510808,-2.3382085280750005,343.5092398731142,1.4569,5.612793,7.98263,1.0,1.0,-1
ReO2F3,mp-641112,14,-6.614772622395833,4.829929881063586,-2.4151878684075,1513.834076640237,3.2953,9.447109,15.780434367179284,1.0,1.0,1
SF6,mp-642824,2,-3.931866795714286,2.551755565795621,-2.218110985752143,285.1339674393383,6.0003,4.866649,8.214073422002569,0.0,1.0,1
ReF7,mp-643265,2,-5.22060896,4.657090566036871,-2.4220616947912497,227.625864464032,1.9957,5.169722,9.296884867762856,0.0,1.0,-1
HfTl8(MoO4)6,mp-645513,12,-6.447170075128205,6.195039822534821,-1.9693689951282047,743.332921451295,3.4478,8.005244553718331,10.884460556284681,1.0,1.0,1
Re2N2ClF9,mp-647727,62,-5.895769006428572,3.8819569407574894,-1.9791403688378577,1038.3677762465468,2.0294,8.093982,14.50626,0.0,1.0,-1
ReTe7O7F32,mp-649107,2,-4.589719873936169,3.8645000168044334,-2.257275272698511,1546.3287790895724,0.5486000000000001,10.863248,12.609442379827195,0.0,1.0,-1
NbClF8,mp-649253,54,-4.7550142385,2.9346069967762887,-2.483058529778,634.5333345131259,3.2636000000000003,5.879416,10.681093,1.0,1.0,1
ReN(OF2)3,mp-667305,14,-5.737501637840909,4.0171893905470215,-1.9504746758654536,1197.7550323318435,2.6214,10.210277,12.259457898528547,0.0,1.0,-1
NbTl2PO6,mp-667345,148,-7.001819432666666,6.065275532547113,-2.4306304652738087,1032.6520112461808,2.9007,15.986301359381946,15.986301645691324,2.0,1.0,-1
BePbF4,mp-672214,62,-5.285131069583334,5.46557183204092,-3.0960876578766667,355.10951290241525,5.1996,5.410088,8.992202,2.0,1.0,1
Sn3(P2O7)2,mp-673118,2,-6.8235911938095235,3.6357459351914576,-2.3892494998469402,321.54258531247416,2.2258,5.672783,8.817929092815046,2.0,1.0,-1
Tl3SiF7,mp-674366,1,-4.803576148181818,6.315302939427182,-2.7622921575754558,407.14739417387864,3.6778,6.932213000000001,8.227348536569847,1.0,1.0,1
Tl5SnF9,mp-674395,26,-4.221217987,7.362157633851278,-2.3143654563806666,591.669803451206,2.9278000000000004,7.223378,9.840766,1.0,1.0,-1
Hg2SbF6,mp-674503,15,-3.51554356,6.042302912826504,-2.0422476963488894,350.0810399764489,0.0,7.557839945995813,8.002094666334434,0.0,1.0,-1
TlPF6,mp-675283,166,-4.8741531375,4.4240408037200405,-2.836873181963928,131.12563063684135,6.1556,5.790299765438919,5.790299838905063,0.0,1.0,1
TlSnF3,mp-676130,9,-4.5013476545,6.183782812976685,-2.3747726072140005,816.5252086565463,0.02239999999999997,8.661139237229303,10.22689166778841,1.0,1.0,-1
Sb(PO3)4,mp-684426,14,-6.881832369264706,3.1652358330239334,-2.3682952921638654,918.391408861475,0.0,8.783609,12.628895468451464,2.0,1.0,-1
Li2Sb(PO3)5,mp-684477,11,-6.826292254347828,2.578956944157638,-2.535063632098861,683.1591216771897,3.9689,5.48299,14.084425,2.0,1.0,1
Sb(PO3)5,mp-684537,14,-6.823696085,2.716083209423752,-2.305581200314625,1263.3889478908495,0.0008999999999999008,9.428016,14.049887,2.0,1.0,-1
KSn2F5,mp-686016,1,-4.76252681,4.041132689491255,-2.7334901442437505,915.942297515464,2.9857,7.4933130000000014,12.865929234380893,2.0,1.0,-1
Hf(MoO4)2,mp-687090,163,-7.913617950454545,4.536277356863329,-2.5907271631818167,1094.582388506526,3.2802,10.235906323244366,12.063275,2.0,1.0,1
P2WO8,mp-687234,12,-7.268160352727272,4.257447814618378,-2.4137038124675327,291.5741273403258,2.4673,6.998668199010509,8.510566835872918,2.0,1.0,-1
Sb2OsC6(OF2)6,mp-6880,128,-6.277717962037038,3.050387275908607,-1.9308062750659247,903.4269920254486,4.6355,8.445507000000001,12.666062,0.0,1.0,1
Cr3(PO4)4,mp-695952,15,-7.244503610434783,2.716905832266012,-2.3530282471428574,655.0387449955899,0.0,10.077814006222033,10.76224885762957,2.0,1.0,-1
Mn3(PO4)4,mp-697730,15,-7.099156092826087,2.7674189157445284,-2.2284447926578808,653.6740296066741,0.0,6.322223342038307,10.889897492140546,2.0,1.0,-1
Li2VP4O13,mp-704203,2,-7.03562137725,2.4519939139556937,-2.6322940601101186,537.3208240401947,1.8206,5.081606,13.744875996040347,2.0,1.0,-1
Li2MoP4O13,mp-704204,2,-6.966203557,2.6124766921918723,-2.56723939186012,561.5173253600366,0.2652000000000001,5.198707,13.849830558777352,2.0,1.0,-1
Zr(MoO4)2,mp-704604,163,-7.7228879771212116,3.649574494485265,-2.5281324825757574,1122.2891044633193,3.0967,10.359352001086748,12.075606,2.0,1.0,1
Cr(PO3)5,mp-705300,11,-7.041677700238094,2.4252646980060715,-2.356370137933673,611.9098639469298,0.22190000000000004,5.0908760000000015,13.708081,2.0,1.0,-1
Mn3(P2O7)2,mp-706469,2,-7.391860413095237,3.2266977074340577,-2.46162093850625,527.6972042881137,0.0,5.335293836877403,16.28408385384689,2.0,1.0,-1
NbCl4F,mp-707060,2,-4.83321504125,2.3943810058261543,-2.077005194455,703.8255471130677,2.5127,8.439891000000001,10.22838772432552,0.0,1.0,-1
Al2Si4O11,mp-707135,2,-7.759263557058822,2.468967163558755,-3.2948677984558823,230.217721085039,4.1914,5.227752,9.720321472209962,2.0,1.0,1
MnOF,mp-752469,59,-6.689223926666667,3.560658134387837,-2.3068666193517244,83.88448639963731,0.0,3.2165970031606386,6.9348430001056975,2.0,1.0,-1
LiAgF2,mp-752525,15,-4.017481430625,4.6314113687160745,-2.12183664622,219.1473164765944,1.7692,6.396655872216513,6.712042572152907,2.0,1.0,-1
V(CO3)2,mp-752541,148,-7.643103335555558,2.4773683453089257,-1.9398299708333333,458.3647756477475,1.3455,4.852147688363371,16.58225416025626,2.0,1.0,-1
Li2V(CO3)2,mp-752552,148,-7.1513174759090905,2.7351641106539124,-2.137926019924242,448.8742720417597,2.4273,6.199530019143548,9.231882461749233,2.0,1.0,-1
VF5,mp-752600,9,-5.187489113333333,2.653652000720536,-2.7700463234916657,182.63759104697812,2.7778,5.769436037996435,7.343746508688122,1.0,1.0,-1
Mn3F8,mp-752616,9,-5.8413539377272725,3.1310833295351816,-2.7679930260332286,336.0249346710483,0.9202,6.4767506501894925,9.28370514578339,2.0,1.0,-1
LiCoPO4,mp-752664,148,-6.604124726428571,2.9578458468068654,-2.384240669557823,180.5978708294577,2.761,5.13455381752407,8.447848777792487,2.0,1.0,-1
P4WO13,mp-752714,1,-7.1224167297222225,3.0424124800975667,-2.374976673640874,562.964587225624,1.9875,5.212838,13.954892959700587,2.0,1.0,-1
VO2F,mp-752776,14,-6.725941803125,3.158114481053404,-2.3974950177975,214.39779979816373,1.7667000000000002,5.323007,7.100963028421216,2.0,1.0,-1
Li2VF6,mp-752779,12,-5.28400688,2.3602740982668493,-3.0903343682007414,125.8021255673186,1.9721,4.744107625944526,5.816961469267782,2.0,1.0,-1
VOF3,mp-752787,14,-5.8916010015,2.7144750026263185,-2.709756613464,303.2641693942324,3.4488000000000003,4.908887,12.453854,1.0,1.0,1
VOF3,mp-752824,29,-5.883451851,2.4611768950827457,-2.701607462964,334.47535147009444,3.222,5.334596,8.575374,1.0,1.0,1
V3OF11,mp-752857,1,-5.683858752666668,2.70519808468279,-2.878696409289333,231.90988591955139,1.8928000000000005,5.42948,7.325899511447655,2.0,1.0,-1
VF4,mp-752887,55,-5.60250653,2.8352938653959376,-2.9856852089520003,148.68350423933427,2.8147,3.080855,9.682417,1.0,1.0,-1
Li2Fe2Si2O7,mp-752892,147,-6.861947129615384,2.4086751965622057,-2.5648596054166664,405.00666380620237,3.0949,5.369261541787288,9.645437514697452,2.0,1.0,1
VF5,mp-752907,4,-5.241165482083333,2.374043774544689,-2.8237226922416667,408.29626992159683,3.0812,5.581272,9.964081,1.0,1.0,1
VF5,mp-752912,15,-5.163336935833333,2.7969048762570066,-2.7458941459916666,173.28319350538303,3.1471,5.4802703947893825,6.2762999948744485,1.0,1.0,1
Li2MnF4,mp-752931,166,-5.439307684285715,2.8735955358033483,-3.0134644574345484,83.682179053399,3.7485,8.857880544001256,8.857880846598071,2.0,1.0,1
FeOF,mp-752941,59,-6.059287791666668,3.6641537554909793,-2.2582149641466684,164.67433814096867,1.8032,3.0979840000025822,7.855058958252193,2.0,1.0,-1
CrOF,mp-752944,59,-7.107751825,3.5357940005837216,-2.672330800813333,163.4221618066782,2.5519,3.048021,13.573826000000038,2.0,1.0,-1
BiOF,mp-752949,166,-5.381808635,7.461909927678152,-2.1963919974800006,108.58757120873872,3.3142000000000005,8.240134142314977,8.240134268181617,2.0,1.0,1
WOF4,mp-752955,79,-5.781073786666667,4.529472719372131,-2.691908374335,101.12247539397244,4.4119,5.439698564901919,5.439698564901919,1.0,1.0,1
VOF,mp-752958,59,-7.1945348875000015,3.724007857374256,-2.83849432998,153.28170700542185,1.7791,4.985479924605354,7.021519006874009,2.0,1.0,-1
VO2F,mp-752960,8,-6.742841315,2.4803830225164907,-2.4143945296725,68.24478216691107,2.5727,4.241158423001551,5.614507603165214,1.0,1.0,-1
VOF2,mp-752974,44,-6.43397346875,3.12971926506118,-2.8118055171574996,222.7077207619061,2.2187,3.731866115320993,9.672514158892662,2.0,1.0,-1
Mn2OF4,mp-752994,36,-6.098771568571428,3.5839938216806937,-2.5431174767486207,187.06032890519646,0.1815,5.3036000118538364,12.118157,2.0,1.0,-1
VO2F,mp-753014,62,-6.79958832875,2.822644763902208,-2.4711415434225,239.8788557836489,3.0636,3.611871,13.627771,1.0,1.0,1
LiMnF3,mp-753025,182,-5.713231041,2.953535713779442,-2.982945123503702,267.3342907015824,3.5461,5.425869776884255,10.485407,2.0,1.0,1
VOF3,mp-753030,19,-5.8923386455,2.6579344351705885,-2.710494257464,309.7153173231089,3.3637,5.22677,10.115719,1.0,1.0,1
TiOF,mp-753059,59,-7.933628531666668,3.431372776272584,-3.4130593252577786,80.20127915638035,0.0,3.054832,6.506024,2.0,1.0,-1
WOF4,mp-753120,82,-5.769691432916668,4.165915621062272,-2.6805260205850003,439.78950634202596,3.1229000000000005,8.795268196823164,8.795268196823164,0.0,1.0,1
LiVF6,mp-753212,156,-5.1618913775,2.090683614072933,-2.932625160059167,136.51118461974468,3.2532,4.842094,5.705611189281303,2.0,1.0,1
Sb6O5F8,mp-753233,1,-5.274728564736842,4.287375607655016,-2.255426677672105,372.8020206779267,3.3542,4.246318,14.205833307872267,1.0,1.0,1
Sn3(OF)2,mp-753246,62,-5.344391808571428,4.751255223033028,-2.007085127125715,595.7147604073434,2.452,5.535561,11.505992,1.0,1.0,-1
VF5,mp-753265,14,-5.213468417916666,2.348234978869492,-2.796025628075,412.7837403409432,3.3235,5.236751,9.710533,0.0,1.0,1
LiVF5,mp-753289,19,-5.415686956428572,2.501260489511669,-3.07088986989762,405.96188548938795,1.9206,5.277474,12.778571,2.0,1.0,-1
LiVF4,mp-753338,10,-5.666050666666668,2.8587897780938047,-3.1672124213488897,77.7624563696246,2.1698,3.130653,5.443578550628071,2.0,1.0,-1
LiV(OF)2,mp-753430,29,-6.0928555145833325,2.940021380369696,-2.6523121576188884,288.90482614562444,2.4897,5.08605,8.464964,2.0,1.0,-1
Mn2F7,mp-753435,15,-5.29963225,3.184502606318204,-2.5323474082844837,253.28079439875282,0.2269999999999999,5.62127145369017,9.986677083921208,2.0,1.0,-1
Sb4O5F2,mp-753445,14,-5.674087398636362,4.6195772152698025,-1.9845026194209088,434.96719518832566,2.9510999999999994,5.294921,13.616129869360455,2.0,1.0,-1
VF5,mp-753449,14,-5.235728097916667,2.3748040095413416,-2.818285308075,408.1655639297968,3.2154,5.360129,9.5408196092623,0.0,1.0,1
SbOF,mp-753539,33,-5.4097510008333325,4.297618905598519,-2.14467871998,242.27597832734574,3.3863000000000003,4.077254,8.38826,1.0,1.0,1
Sn3(OF)2,mp-753564,62,-5.3341433375000005,4.796305948036705,-1.9968366560542867,590.1193329799653,1.9511,5.608706,15.53271,1.0,1.0,-1
MnF4,mp-753574,14,-4.999905205,3.456812556942761,-2.3672938340750362,125.79052479714923,0.19700000000000006,4.742211,5.554657773591097,2.0,1.0,-1
SbOF,mp-753656,62,-5.383038924166668,5.378809506193075,-2.117966643313334,193.5762595111698,2.9628,3.459083,8.267161,1.0,1.0,-1
LiVF6,mp-753694,8,-5.17109818125,2.331980239986395,-2.9418319638091672,122.38598420707469,3.2309,4.841994903030051,5.608864552780001,2.0,1.0,1
WOF4,mp-753704,2,-5.723739555000001,4.557254126238712,-2.6345741426683333,201.01204845050404,4.8911,5.35215,6.52784186803648,0.0,1.0,1
YIO,mp-753712,129,-7.02022484,5.137030264327024,-2.9415084409722225,149.8644455146246,3.4235,3.953166,9.589777,2.0,1.0,1
Y3I7O,mp-753727,186,-4.900070825,4.289135149831649,-1.7806919964772725,906.742867018074,2.5815,8.385386609215642,14.890434,2.0,1.0,-1
VF4,mp-753759,65,-5.598687787999999,2.9616311970782037,-2.9818664669520003,71.1704799488955,2.8009,3.0834080000000004,4.914150878699696,1.0,1.0,-1
NbOF3,mp-753785,136,-7.0026805335,3.260211210654868,-3.2809563514640003,337.99659791129244,3.2785,3.860055000000001,9.357491,1.0,1.0,1
NbOF3,mp-753800,2,-7.025016343500003,2.854515673207944,-3.3032921614640003,386.03406806143937,3.6661,6.697761999999999,8.753174254989043,2.0,1.0,1
BSbO3,mp-753806,2,-6.945128407,3.85086307904932,-2.236050523583333,155.72727706472082,3.7755,4.84604,6.220887137782039,1.0,1.0,1
WOF4,mp-753852,14,-5.724980372916666,4.670435092464073,-2.6358149605849994,392.2816478930876,5.0705,5.003685,10.276465587834174,0.0,1.0,1
TiOF2,mp-753858,4,-7.328798809375,2.540912938714304,-3.5832343711158336,266.278834035026,3.8984,5.227318,8.9359,1.0,1.0,1
SbOF,mp-753868,114,-5.41526833,4.3490218502479605,-2.150196049146667,478.8248303570208,3.5525,4.548229,10.260468,0.0,1.0,1
WOF4,mp-754003,2,-5.722140345833334,4.588357374726146,-2.6329749335016666,199.64944149090616,4.9185,5.257785,6.434870090766557,0.0,1.0,1
YBrO,mp-754031,166,-7.261446281666667,4.692907384490321,-3.145091907638889,130.78586656462448,3.8266,10.34657331106705,10.346573506363011,2.0,1.0,1
YIO,mp-754038,166,-6.955877166666667,5.270450509881966,-2.8771607676388897,146.07066145707074,2.3983,11.066566990071399,11.066566996991343,2.0,1.0,-1
TiSnO3,mp-754246,148,-7.692200851,4.572232865740896,-2.7637887954166667,155.85842313207326,1.1078,7.426353533600189,7.426353758770517,2.0,1.0,-1
Mg(ReO4)2,mp-754311,147,-7.8964083345454545,4.832088290860682,-2.4005303190909086,180.31715801794053,3.9436,5.819950390789428,6.1470660000000015,2.0,1.0,1
SbTe2F6,mp-754462,2,-4.2599416266666665,4.39236605635783,-2.1556189707933333,371.20874735164887,1.0699,5.805818,8.511836838047707,0.0,1.0,-1
LiFeF4,mp-754662,88,-5.063101475,3.3217058688375403,-2.8417470946822214,138.7533862428759,3.6028,6.67619670756105,6.67619670756105,2.0,1.0,1
V2O5,mp-754670,59,-7.433118892142858,2.3009284980928046,-2.2856703944642853,262.519105381628,2.4738,3.634684,11.419331,2.0,1.0,-1
LiVF4,mp-754766,12,-5.663656970000001,2.8158029383741168,-3.1648187246822235,78.94959990250992,2.2272,5.484545247392532,5.499050081954518,2.0,1.0,-1
VOF3,mp-754919,7,-5.891121616,2.905759358991169,-2.7092772279640003,141.65023756452416,3.026,5.31313,5.594209676108504,2.0,1.0,1
V2O5,mp-755235,62,-7.431362509642858,2.3601153426003707,-2.2839140119642862,511.871331001042,2.5161,5.917425,10.138654,2.0,1.0,-1
YTlO2,mp-755544,166,-7.0302786275,7.776998737255214,-2.7004148697916666,69.45524451246949,1.7575000000000005,6.809538314447023,6.8095383759119095,2.0,1.0,-1
Li2VF6,mp-755686,63,-5.2899769600000015,2.400843510452744,-3.0963044482007414,247.35264684324403,2.2042,5.614156,8.408383166806624,2.0,1.0,-1
Li3V5O14,mp-755775,157,-6.937006015454545,2.5449786149858835,-2.2926598557954563,325.9264957260446,2.3956,4.892281,8.770792274262174,2.0,1.0,-1