pretty_formula,task_id,spacegroup.number,final_energy_per_atom,density,formation_energy_per_atom,volume,band_gap,min_abc,max_abc,Dimension,Dim,is_uv
CsB3PbF12,mp-1004528,8,-5.614997878235294,3.0684580338604057,-3.1624786805712377,324.9794296634078,6.3125,6.865335959528927,6.8918475306379925,2.0,1.0,1
SnPOF7,mp-1008228,61,-5.1437947123750005,2.8188913325406224,-2.7825573001901427,1407.5221487822253,4.4455,10.057369,12.486726,0.0,1.0,1
Sn4SF6,mp-1013750,36,-4.762094389545454,4.248491913317467,-2.213496381387728,485.3586264917723,2.4505000000000003,7.6381223589115805,8.895499000000003,2.0,1.0,-1
Re2O7,mp-1016092,19,-8.10618098486111,5.837607744971918,-2.038546245833334,1102.3438809662773,2.6752,5.558364,15.566044,2.0,1.0,-1
B2S2O9,mp-1019509,5,-6.702810155384616,2.568795527668781,-2.2015984250641023,148.51443044388324,6.6984,4.476392519422308,8.865185855563155,2.0,1.0,1
TcF6,mp-1025373,229,-5.024222698571426,2.735866659953804,-2.3265197395914283,128.66795665855102,0.0,5.508467164073414,5.508467164073414,0.0,1.0,-1
ReF6,mp-1025374,229,-5.4982779342857135,3.7252477301955085,-2.50287393602,133.81379665935268,0.0,5.580943098065326,5.580943098065326,0.0,1.0,-1
NbCl2O,mp-1025567,5,-6.4432430075,3.2562050475209245,-2.2295748919425,183.3941542177809,0.9322,6.768331418061619,7.324903109339397,2.0,1.0,-1
Zn(ReO4)2,mp-10326,147,-7.577874976363637,4.777768993269658,-2.1129548190909087,196.65312973834327,4.0065,5.811486424579687,6.723506,2.0,1.0,1
Tl2SnF6,mp-10401,164,-4.487843493333333,6.4804735364534585,-2.5704903135711112,164.36777950334618,4.4844,4.96526,6.182612819483037,0.0,1.0,1
TiTl2F6,mp-10402,164,-5.426557578888889,6.057885964760943,-3.0774354922748146,156.41487504614997,3.9155,4.951724,6.0394234732613326,0.0,1.0,1
TiNF,mp-1071956,59,-8.236234923333333,2.8110962917939206,-2.480063477301112,95.54371164995415,0.6581,3.062004,7.870825999999999,2.0,1.0,-1
SrBiS2F,mp-1078631,129,-4.928112103,5.3543343461732364,-2.1389030168213337,235.530496102666,1.1263,4.065045,14.253333,2.0,1.0,-1
ZrTi(PbO3)2,mp-1079416,99,-7.710931774,7.588402081948216,-2.776683814083333,142.1246778066841,1.8868,4.02758,8.761553999999999,2.0,1.0,-1
TiZn(BiO3)2,mp-1084840,8,-6.460906937000001,7.132423554995407,-2.219977231083333,146.0296383743298,1.4626,3.8298792504667816,9.962274928369975,2.0,1.0,-1
GeF2,mp-1095292,62,-4.881769906666666,3.572856078532266,-2.393727199126667,205.680537019036,4.1965,4.457753,8.660853,1.0,1.0,1
Zr(MoO4)2,mp-1095622,12,-7.717952478181817,3.705202546779263,-2.5231969836363635,184.23993647564427,3.181,5.908220451582693,6.033989772711999,2.0,1.0,1
ZrCl3,mp-1100795,2,-5.2408074975,2.8124521466647248,-2.163494107445,233.3154651431944,0.3714,6.278204,7.57210990814938,2.0,1.0,-1
W5(O2F11)2,mp-1101179,88,-5.6516309308064505,4.259065956059004,-2.707424570521935,1092.5799434699961,3.5499000000000005,12.706256247864196,12.706256247864196,0.0,1.0,1
V3OF11,mp-1101185,1,-5.700244928666668,2.921493947197951,-2.895082585289333,429.48038951803215,1.9631,5.295,15.04101051689274,2.0,1.0,-1
VF5,mp-1101189,14,-5.187639975833333,2.6604999597795693,-2.7701971859916656,364.33498681860345,2.7560000000000002,5.175341,10.197276625977349,1.0,1.0,-1
VF4,mp-1101190,14,-5.598663854,2.9169153931326735,-2.981842532952,289.0460439461784,2.7841,4.934713,10.39217927610268,1.0,1.0,-1
VF4,mp-1101193,14,-5.585169458499999,2.8568411513978718,-2.9683481374519998,295.1241634482075,1.9378,4.960531,10.893223815849602,1.0,1.0,-1
VF5,mp-1101210,62,-5.208745283333333,2.253526664789676,-2.791302493491667,430.13168333983367,3.2848,5.127603,10.176591,0.0,1.0,1
VOF2,mp-1101214,71,-6.4187986975,3.286204511006298,-2.7966307459074997,106.05131874963024,1.4003,3.102882844118675,9.40799965826748,2.0,1.0,-1
V2OF8,mp-1101223,13,-5.536137167045454,2.522402677068428,-2.7712391052972722,710.6384088020986,2.5347,5.382347,14.970652855339909,1.0,1.0,-1
V2F9,mp-1101229,193,-5.3568322886363635,2.6708278479723377,-2.8487628937009086,339.30230173087995,0.05900000000000016,5.203557637944448,14.469563,0.0,1.0,-1
TaOF3,mp-1101316,71,-7.543831195999999,6.06477242959079,-3.4708124959639988,69.52963685711063,2.8024,5.204561116446612,5.204561116446612,2.0,1.0,-1
TiMn2O6,mp-1101349,64,-7.6622483627777775,3.8554853709950714,-2.2921153107848533,218.56876389880543,1.6071,5.102839550558493,9.700142000003812,2.0,1.0,-1
SbOF3,mp-1101381,71,-4.844547146,4.547611078717,-2.3172837239640005,71.11374126840906,1.4817,5.318809158894968,5.318809158894968,2.0,1.0,-1
Sn2P2O7,mp-1101386,15,-6.734336717727272,3.959786967709792,-2.3193027437175333,1035.0327565174648,2.8001,9.444225227717359,11.808649730259635,2.0,1.0,-1
K2TeOF4,mp-11014,63,-4.535941405625,3.197899408524932,-2.6244458021262496,309.2600626297855,4.938899999999999,6.721015,7.838900198483968,2.0,1.0,1
NbOF3,mp-1101450,71,-6.947989064,3.9308449251306303,-3.2262648819639987,70.08291592913585,2.0897,5.205345132834613,5.205345132834613,2.0,1.0,-1
Sb(PO3)5,mp-1101485,11,-6.833188508571429,2.757956241112763,-2.3150736238860543,622.1036898963575,0.2204,5.222174,14.019260999999998,2.0,1.0,-1
V3(PO4)4,mp-1101510,15,-7.386986267608695,2.644966709982957,-2.5265728260559004,668.8822785419135,0.9437,10.072101751065118,10.919051904335149,2.0,1.0,-1
NaV2O5,mp-1101677,59,-7.012821923125,2.477232099588715,-2.3444729605729178,274.656747352216,0.6699999999999999,3.712844,11.32932,2.0,1.0,-1
BaSnF4,mp-1103397,129,-5.334073427500001,5.027274424013648,-3.3989495574600004,219.34342841040058,3.8059,4.422544,11.21451,2.0,1.0,1
Sb2F13,mp-1104255,2,-3.9342739046666666,3.249423156264589,-2.1525969566980003,250.6577671314381,0.0,5.362273629168229,7.675765129170121,0.0,1.0,-1
V2O5,mp-1104615,2,-7.400644928571429,2.1056565716161253,-2.2531964308928574,286.86429639511795,2.4322,6.2899,7.363815405943714,2.0,1.0,-1
SbPbF7,mp-1105453,2,-4.699981061666667,5.659563881602508,-2.723814478703334,271.0753275031026,4.0524,4.842692,7.883744042807263,1.0,1.0,1
HgAs2H2F14,mp-1105456,2,-4.114079597894737,4.038690886541405,-2.2199168415210533,254.27094204758686,3.325,5.032787,7.842687609651492,2.0,1.0,1
Ti2ZnSn2O7,mp-1120808,15,-7.0976614412500005,4.168323621927537,-2.5318673050347242,406.78359460217285,2.8756,6.8970126789689195,9.266562967347982,2.0,1.0,-1
Tl3SiF7,mp-1133284,36,-4.81560932,6.552774483006169,-2.7743253293936365,392.392434971578,3.5791000000000004,6.973125,8.063756711979908,1.0,1.0,1
CF4,mp-1167,15,-5.188190706,1.9848881666589264,-2.2063944589520004,147.2471869079337,9.0652,4.900764481235249,8.703582935234202,0.0,1.0,1
Sr2MnBiPbO6,mp-1173263,3,-6.294565979318183,6.766599119464753,-2.300339341268045,728.7023804063019,0.08989999999999965,7.728270749219776,12.511921890430903,2.0,1.0,-1
LiVF6,mp-1176528,163,-5.168470635625,2.5700890815206594,-2.939204418184167,222.09478953415882,3.3869,5.242722487590012,9.330266,2.0,1.0,1
LiVF4,mp-1176530,15,-5.659991988333334,2.9216450218777594,-3.1611537430155567,152.17900444734414,2.3217,5.517576914627835,10.331506696395113,2.0,1.0,-1
LiV3OF11,mp-1176563,1,-5.6922823334375,2.848538605064796,-2.9431349573545837,448.5724572831005,0.0,5.304437,15.65686853132752,2.0,1.0,-1
LiV3OF11,mp-1176567,2,-5.72220002125,2.923749065993523,-2.973052645167084,437.0333886042604,0.0,5.248759,15.675485977077903,2.0,1.0,-1
LiV3OF11,mp-1176596,2,-5.7056876315625,2.9485849223243217,-2.9565402554795837,433.35226740983285,0.0434,5.239963,15.427578127728214,2.0,1.0,-1
LiFeF4,mp-1176695,12,-5.076608271666667,2.943079817521945,-2.8552538913488887,78.3019771771117,3.3067,5.474680830362625,5.597277632154047,2.0,1.0,1
TlPO4,mp-1178940,14,-6.131100304583334,6.382995475689633,-2.0048335185119046,311.50898534273625,0.5939999999999999,4.568817,14.595676875039713,2.0,1.0,-1
Ti3(BiO3)4,mp-1179025,12,-7.2667010199999975,7.750047518997612,-2.5196168665789465,251.01098852038203,1.5530000000000002,3.8646943757200254,16.978874726609238,2.0,1.0,-1
SbF6,mp-1179597,19,-4.022963759642857,3.0972957342958707,-2.2154920392342854,1011.1343949864647,0.02839999999999998,7.643306,12.736035,0.0,1.0,-1
BePbF4,mp-1182129,62,-5.308960514583333,5.237678225331933,-3.1199171028766663,370.56047880570407,5.4226,5.445741,9.236223,2.0,1.0,1
AlTl2F5,mp-1183276,63,-4.940033519375,5.7098528117994976,-2.9935794619937486,308.6996425215632,4.0615,6.387520202258228,7.569417999999999,1.0,1.0,1
NbF5,mp-1186248,12,-6.19823332875,3.601945752740141,-3.330890710575,346.49342164258525,4.3945,4.890430720006265,8.747226976129294,0.0,1.0,1
Ta2Mo2O11,mp-1186878,166,-8.335325091333331,4.952262449582678,-2.66551432625,244.69829943725705,2.631,9.268962433027335,9.268962436353108,2.0,1.0,-1
TlSO3F,mp-1190566,62,-5.3472596533333325,4.6301910141613725,-2.0152280888441663,435.30136427040617,4.4638,5.433957,14.029417,0.0,1.0,1
Ge3F8,mp-1190647,14,-4.860021293636363,3.838322361413049,-2.5660681449563643,320.05930783796384,4.3787,5.094397,13.01652627632123,2.0,1.0,1
KPb2C2O6F,mp-1191763,194,-6.518057252916668,5.6074345707724556,-2.027740800140833,350.9246403761975,3.0942,5.371027400331523,14.046511,2.0,1.0,1
ZrCl3,mp-1192044,12,-5.245392678333333,1.8825473276523048,-2.1680792882783333,1045.6925642507665,0.0,6.908616876701879,13.520428922891462,2.0,1.0,-1
Tl3V5O14,mp-1192129,157,-6.841577076363635,5.014825782483621,-2.135494992159092,361.5395624831089,2.145,5.328394,8.851450380767323,2.0,1.0,-1
HgTe2(OF5)2,mp-1192364,15,-4.082873727,4.2513635459215,-2.13039942696,529.4622554195934,2.4806,6.0326270333077945,10.740067149573786,0.0,1.0,-1
Mn4SiTeBr2O7,mp-1193463,11,-6.788524836666666,4.438334049765421,-2.0228213974140448,484.31224464540117,2.7267,5.591950558297706,13.193952997752907,2.0,1.0,-1
Mn4SiTeCl2O7,mp-1193890,11,-6.876750693666668,3.983463527115516,-2.1621239961820464,465.4966777800464,2.5326,5.541599782376474,12.90611322757607,2.0,1.0,-1
V3As2O9,mp-1194395,100,-7.133944321071428,3.7663437536262565,-2.1528768754464283,393.85687937448415,2.6362000000000005,4.785355,9.07219,2.0,1.0,-1
TlBi(SO4)2,mp-1194570,2,-5.881813910208333,5.4763460172757386,-1.9515646790624992,734.3860082404547,3.8337,7.692678,11.03578336894382,2.0,1.0,1
HgAsF7,mp-1195247,14,-3.893552676944444,4.602513648321943,-2.2372582650922217,589.5308189820303,2.515,7.298896000000001,10.21904,1.0,1.0,-1
Na2Sb5C2S2N2(OF3)3,mp-1195293,2,-5.498052328200001,3.7614517339221414,-1.8940225780854656,874.0318958260219,3.0894,7.150351,13.666049937091556,2.0,1.0,1
LiSb2F7,mp-1195657,62,-4.82120915475,3.974615557270565,-2.810131526416334,640.7999978878835,4.7264,4.90612,14.67475,2.0,1.0,1
Re2Sb4O13,mp-1196004,2,-7.038436404473684,5.460044617270817,-1.9542937505921056,649.2753231308621,2.8768,7.892144999999997,10.21282504272574,2.0,1.0,-1
Al(SiO3)2,mp-1196937,15,-7.508336961388887,2.5535360700381533,-3.0560928855555565,465.99507996106735,0.3704000000000001,5.279926730645512,19.3592462211786,2.0,1.0,-1
TlSb3F18,mp-1199017,147,-4.378286468863636,4.160045521446159,-2.5456246912009095,727.7828040839148,2.2625,8.875795,9.7304281405599,2.0,1.0,-1
Cd2Sb5O2F31,mp-1199437,14,-4.1775344661250005,3.818101380148213,-2.3020551959847504,1265.2217565699925,0.0,10.562483,11.696475,2.0,1.0,-1
AgSb3IF24,mp-1199846,15,-4.041075776896552,3.6581843738680964,-2.28808351655954,958.7013111082242,0.3242999999999998,9.828998088684367,10.59032803754558,1.0,1.0,-1
InSb3F18,mp-1200631,165,-4.514823955,3.930466877877252,-2.664433506882727,694.6137240738707,3.4916,9.043803990605943,9.806419,1.0,1.0,1
P2O3F4,mp-1200699,54,-6.006290240555555,2.1254359320670533,-2.7567603889614283,581.0752102488765,5.831,6.7601,12.695943,0.0,1.0,1
BPb3O4F,mp-1201056,57,-6.118033883055558,7.578714000483845,-2.093528884206296,626.9988693369289,2.3538,6.6305,12.158541,2.0,1.0,-1
Sb2Os(OF7)2,mp-1201470,2,-4.864371292631579,3.992102934256237,-2.3451939378505258,608.731972930004,1.4215000000000002,7.731876,10.451023094922046,0.0,1.0,-1
Y2Te3MoO12,mp-1201916,62,-6.8799996718055585,5.294374499621402,-2.4008066900462968,1064.557327479817,2.9933,5.265948000000002,18.008011,2.0,1.0,-1
Zr2Te4Br2O11,mp-1202377,2,-6.308772044210527,4.781896099111495,-2.116941611776316,714.4080419698068,2.8489000000000004,7.965335,10.826685479330877,2.0,1.0,-1
BPb2O3F,mp-1202733,176,-6.315334278571428,6.940766691741003,-2.2778724998723794,706.5472651288333,3.1978000000000004,7.412006442536661,14.85043,2.0,1.0,1
Zr2Te4Cl2O11,mp-1202980,2,-6.363333521052631,4.542966871281283,-2.2118268321194736,686.9903808018138,3.1681,7.932985,10.547910545753172,2.0,1.0,1
TcF4,mp-1203061,61,-5.556591415,3.5758726850929072,-2.348027325952,646.3836200829775,1.3037999999999998,5.484986,11.781774,1.0,1.0,-1
Fe(SiO3)2,mp-1203128,15,-7.304677295555559,2.932975797352978,-2.631163547500001,471.07475874702004,0.7803,5.327666218371887,19.430310887639166,2.0,1.0,-1
CoP4F12,mp-1203442,15,-5.131040482941176,2.200921512574133,-2.5466838449156297,619.889918546818,1.3125,7.874647040004397,13.03418604642952,0.0,1.0,-1
SF4,mp-1203812,19,-3.98438035575,2.0802428165717832,-2.153342275327,690.0561669342453,4.8812,7.078685000000001,13.67078,0.0,1.0,1
KB6F6,mp-1205091,15,-5.9269552211538485,2.0761703658229926,-2.103105192318461,697.2882995331018,2.6505,8.369791527897574,11.53401592508546,1.0,1.0,-1
TaHg3F6,mp-1207124,162,-4.632269708,7.932711007386506,-2.503057755214,187.70621553962425,0.0,5.3054934945651375,7.700100999999999,0.0,1.0,-1
TlV(SO4)2,mp-1208013,150,-6.316260084166667,3.8179175399053835,-2.0933548730208336,194.6108572498356,2.0665,5.164897197368116,8.4237490056038,2.0,1.0,-1
Tl3GeF7,mp-1208140,127,-4.419442234090909,6.623548236711953,-2.4510933493936364,410.53948936619287,3.5969,6.049594,8.237859,0.0,1.0,1
Tl2VF6,mp-1208154,225,-4.904257967777777,5.867152906702027,-2.609978764126667,162.3698612821157,0.0,6.123599879404434,6.123599879404434,0.0,1.0,-1
Tl2GeF6,mp-1208162,164,-4.553098248888889,6.396687824327253,-2.567583291348889,154.56124132847935,4.8418,5.017888,5.9638194599485495,0.0,1.0,1
Tl2SbF5,mp-1208164,63,-4.406082345625,6.369834645566728,-2.41170011199375,326.13031783375294,3.4914,6.8464899999999975,7.962946107749633,2.0,1.0,1
Tl2CrF6,mp-1208169,225,-4.781448518888889,6.3513117482540355,-2.4607091596822217,150.26817229435628,0.0,5.967521613806689,5.967521613806689,0.0,1.0,-1
Tl2V3O8,mp-1208174,100,-6.828574225769232,4.987442577116607,-2.1443936165384607,459.1872380430117,2.1147,5.531646,9.111035,2.0,1.0,-1
TlBi(MoO4)2,mp-1208190,14,-6.483615990416666,6.310362085194146,-1.9130912320833329,771.7920602100287,2.6848,5.374235,12.223423,2.0,1.0,-1
TcF6,mp-1208328,62,-5.022492033214285,3.5411403892661406,-2.3247890742342854,397.63277829203753,0.0,4.962472,9.364463,0.0,1.0,-1
Ti2Te2(OF)5,mp-1208334,62,-6.3506418685714285,4.063701757817347,-2.7500230181333336,859.6257955319666,0.0,6.6742240000000015,16.782011999999998,1.0,1.0,-1
Sr2YCu2(BiO4)2,mp-1208863,66,-6.1684033886666665,6.8819712627330025,-2.1824541,452.2677998757687,0.0,5.350205,15.598028513367,2.0,1.0,-1
ScTl(SO4)2,mp-1208994,150,-6.565264089999999,3.790691526770909,-2.4314786259374994,193.38658855843656,4.3456,5.053751466159075,8.74315,2.0,1.0,1
Sb2HF13,mp-1209115,2,-4.00691729375,3.0978059004685274,-2.134111613693125,263.46611207558857,0.0,5.524407,7.733108977889942,0.0,1.0,-1
ReF6,mp-1209252,62,-5.497032958214287,4.823973444597453,-2.501628959948572,413.34352106135566,0.0,5.016597,9.484878,0.0,1.0,-1
SbTe8Cl6O6F31,mp-1209318,2,-4.139411440769232,3.260679382113336,-2.0949967965182688,1039.0083638262752,2.2963,9.36618,10.814844520593626,0.0,1.0,-1
Nb3Pb2(O2F)4,mp-1210028,139,-7.339524241176469,5.804420852386931,-2.7879516796917643,256.64624265991193,0.0,16.819094634927353,16.819094634927353,2.0,1.0,-1
NaBe2Tl3F8,mp-1210101,164,-4.811099146428573,5.937978625157252,-2.865182149489524,225.43793830574108,4.438599999999999,5.862698517262932,7.573581,2.0,1.0,1
MgTeMoO6,mp-1210722,18,-6.311444457222222,4.511231682443122,-2.1411981436111125,253.1291308475758,3.2147,5.088778,9.27286,2.0,1.0,1
HfTlF5,mp-1212176,14,-6.380773636428572,7.29298471023133,-3.606260422278572,435.2204521575003,4.7669999999999995,7.671989,7.988420308495166,2.0,1.0,1
CsSb4F13,mp-1213089,87,-4.698671011666667,4.058917036944022,-2.705417729911169,354.6666039867704,4.8426,7.930455944656902,7.930455944656902,1.0,1.0,1
CaAs2F12,mp-1213993,115,-4.697874959999999,3.0837990515632936,-2.806512406952,225.02849542780282,4.8487,5.376054,7.785926,2.0,1.0,1
Ca3Fe2Br2O5,mp-1214034,139,-5.919949204583332,3.8854246202056335,-2.4205337192708343,403.2117515674229,0.0,5.537905453949354,13.431183821668364,2.0,1.0,-1
Ba2FeBrO3,mp-1214726,129,-5.887182141428572,5.562446721887629,-2.4659153576785715,273.69002844777174,1.4753000000000005,4.139055,15.975578,2.0,1.0,-1
Cs2SbF5,mp-1214796,63,-4.5661880775,4.352061121799091,-2.9383684958515084,368.2460140124175,4.7174,7.1837,8.270123563851088,2.0,1.0,1
AlIO,mp-1214837,29,-5.3208703050000015,3.8431843372785903,-2.149119000416667,293.61210191168016,1.6566,5.1044220000000005,9.830705,2.0,1.0,-1
ZrO2F5,mp-1215343,10,-5.752735178125,3.097239589657925,-2.59593489855625,233.9852739122136,0.3148,5.822373824764003,7.156538,2.0,1.0,-1
YNO4,mp-1216049,39,-7.43716866,3.510268280212784,-2.2035677973411105,157.9143259501893,2.8794000000000004,3.95587476722507,10.095439,2.0,1.0,-1
VPPb3O8,mp-1216362,160,-6.62162727,7.20796548057933,-2.1663613552747254,191.55968631617782,3.0658000000000003,7.635944747674907,7.63594485096959,2.0,1.0,1
V3P4WO20,mp-1216492,3,-7.367651131071428,3.870800319242472,-2.4612476489030612,334.8479874690347,0.0,4.347885,12.413394323402159,2.0,1.0,-1
TlBiF4,mp-1216550,123,-4.526900135,7.4714156888909615,-2.5379188307933336,108.76077162177229,3.3696,4.041372,6.659086,2.0,1.0,1
TlBiF4,mp-1216759,26,-4.506914766666667,7.705727536482358,-2.5179334624600003,210.90725868092247,4.0710000000000015,3.857573,8.222627000000001,2.0,1.0,1
V2MoO8,mp-1216790,8,-7.277701251818183,3.5314047549147527,-2.1791758954545446,153.2064114022388,1.4254,4.3134171335469045,9.719791224499888,2.0,1.0,-1
TiNb(BiO3)3,mp-1216832,107,-7.225481984285714,8.000427806005778,-2.3770613267559533,189.2309695778233,1.788399999999999,12.951407793067556,12.951407793067556,2.0,1.0,-1
TiTeO3F2,mp-1216939,14,-6.5689797312500025,4.1427784625789394,-2.7665669283161907,838.4090628655887,2.7358,6.628403,18.074032865695056,1.0,1.0,-1
TiBi2(O2F)2,mp-1217030,139,-6.502815388888887,8.042325109413184,-2.5584461911903693,117.24108933455037,1.2998000000000005,8.290154842352282,8.290154842352282,2.0,1.0,-1
Te4Au(OF5)4,mp-1217460,2,-4.192940839655171,3.8862197796475297,-2.081190846165517,491.95162907274164,0.2653000000000001,5.823309,10.525033935927095,0.0,1.0,-1
Te4Mo(OF4)5,mp-1217532,2,-4.575873471833333,3.6145389634405602,-2.258300912835,979.7328143891408,2.9333,9.60533,10.564410371519653,0.0,1.0,-1
TaTiTlO5,mp-1217858,62,-8.421846168125,7.111248683781152,-3.003939921822917,479.3423394821862,2.5943,3.823018,19.161487,2.0,1.0,-1
SrBi3Cl3O4,mp-1218398,107,-5.095652896363637,6.715188717562832,-1.995307533767879,218.82342245819044,0.28000000000000025,14.115297938095956,14.115297938095956,2.0,1.0,-1
Sr2YCu2BiPbO8,mp-1218640,107,-6.145357888,6.997115657652071,-2.171234415333333,221.99012466649762,0.0,15.799860947341216,15.799860947341216,2.0,1.0,-1
Sr2CaCu2(BiO4)2,mp-1218930,37,-5.7704474333333335,6.2666689838810585,-2.0818895602222223,470.79762860733666,0.0,5.417115,16.113989187448308,2.0,1.0,-1
Nb3Pb2O7F5,mp-1220840,44,-7.280916344117648,5.786490620904534,-2.8955270376294115,258.30211478382455,0.0,17.009959555925874,17.009959555925874,2.0,1.0,-1
KMg3AlSi3(O5F)2,mp-1223512,1,-6.901528857000001,2.7474001624898956,-3.3400032598940004,254.60034829325818,0.0,5.364008258521326,10.368308496108996,2.0,1.0,-1
KMg2AlFe(SiO4)3,mp-1223578,1,-7.0086809297500015,2.9179507617049,-2.9578076576499996,1017.0185545544302,1.1318,9.233407536610576,11.403354733507724,2.0,1.0,-1
KFe4(SiO4)3,mp-1223588,1,-7.075022880500001,3.411944555873328,-2.5109059729000003,262.1901415472093,1.9707,5.397228,10.55571463294158,2.0,1.0,-1
KMg3AlSi3O11F,mp-1223599,9,-6.839986023749999,2.646939189666184,-3.1372046598970003,524.763907692198,0.012799999999999924,5.4059755944999415,21.03317965688521,2.0,1.0,-1