pretty_formula,task_id,spacegroup.number,final_energy_per_atom,density,formation_energy_per_atom,volume,band_gap,min_abc,max_abc,Dimension,Dim,is_uv
CaBiIO2,mp-1227238,107,-5.2814310419999995,6.122036427857116,-2.0992354935,110.65538382421856,1.8877,7.366431956386213,7.366431956386213,2.0,1.0,-1
BiSb3F20,mp-1227565,5,-4.35549826625,3.723657577758072,-2.4934965701583334,425.53151299366317,2.1272,5.620897892163849,9.004428086537201,0.0,1.0,-1
BaBiBrO2,mp-1227937,107,-5.313881336000001,6.40457295143044,-2.1264288125,118.80197845894787,1.7589,7.58739763977617,7.58739763977617,2.0,1.0,-1
BaBiClO2,mp-1227965,107,-5.430396206,5.9299307627890885,-2.3195587951520005,115.86363201347204,1.6477,7.48727852111994,7.48727852111994,2.0,1.0,-1
Ba2TaCu2Pb2ClO8,mp-1228449,38,-6.42002784375,7.558488836576303,-2.2613652502037502,254.96173956726173,0.0,3.9871092703945297,16.038315,2.0,1.0,-1
Ba2NbCu2Pb2ClO8,mp-1228495,38,-6.234574886875,6.941605569834926,-2.1856918302037505,256.55867279182064,0.0,4.010778205006729,15.948873,2.0,1.0,-1
AsSClOF8,mp-1229176,4,-4.227724140833334,2.5578892540744422,-2.14472199184625,806.0941248099601,3.8097,8.624698,10.047660613191313,0.0,1.0,1
ReBiO5,mp-1239407,14,-7.270445722142857,4.903087141848356,-1.9043187451785712,643.7268905984988,2.8584,5.95635576613931,12.12681,2.0,1.0,-1
AlSbO3,mp-1261047,4,-6.657461419500001,4.023790304065402,-2.5351467242499988,324.76247240607887,3.8402,5.118104361396608,11.530310352659269,2.0,1.0,1
MnOF,mp-1281811,31,-6.712596886666668,3.9037565334131092,-2.330239579351724,76.51193825519415,0.15680000000000005,3.186818032459023,6.257231032960905,2.0,1.0,-1
MnOF,mp-1282272,62,-6.7282694525,3.638372209653053,-2.3459121451850566,164.18549924901518,1.2908,3.2410960202314283,13.271555094888996,2.0,1.0,-1
Sr2Co(BrO)2,mp-1286332,71,-5.139237589285714,4.8352653113825905,-2.2280284008333333,585.1645175476931,2.1974,8.096131014677812,9.297625528476614,2.0,1.0,-1
Mn2OF4,mp-1295109,4,-6.111371635714287,3.4991614789699588,-2.5557175438914785,191.59534851622053,0.799,3.0304949702136117,12.343178173094644,2.0,1.0,-1
Li2Fe2Si2O7,mp-1295198,2,-6.862253856538462,2.398315762839712,-2.565166332339744,406.7560746869036,3.4796,5.367380113401696,9.295365411956864,2.0,1.0,1
NbF4,mp-1416,139,-6.369710016,3.720526524569952,-3.213008900952,75.38315734095649,0.0,5.2413157690463565,5.2413157690463565,2.0,1.0,-1
Sn3F8,mp-1443,14,-4.856339643181818,4.4725174575879665,-2.7296926763200005,377.3036154793412,3.2196,5.494429,13.602532877135198,2.0,1.0,1
AgSb2F12,mp-14653,2,-4.289056717333335,3.983889312503917,-2.4132460447297777,241.48886848390046,0.5524,5.430271,9.03434534432346,2.0,1.0,-1
AlTl2F5,mp-1539038,123,-4.943094990625,5.739417947571868,-2.9966409332437496,307.1094556894833,4.0941,6.364625161381496,7.58136768,1.0,1.0,1
Mg(ReO4)2,mp-1541458,164,-7.913435133636364,4.457544794063832,-2.4175571181818185,195.46823826876584,3.9723,5.818598161337253,6.6666031247552,2.0,1.0,1
TeF6,mp-1542727,148,-4.0790574585714285,3.2347815081809563,-2.412400068162857,124.01775148747663,4.4405,5.702733354822843,5.7027339899722636,0.0,1.0,1
CuSiO3,mp-16053,51,-6.711097562000001,3.679809081971686,-2.2587941427500007,126.01771806237532,0.11220000000000008,2.860253,8.958139,2.0,1.0,-1
Zr3Tl2OF12,mp-17315,166,-6.5036881441666665,5.649829642270781,-3.6337617594738902,544.566746468871,4.2614,11.133696036093852,11.133696054839113,2.0,1.0,1
Ge3Sb2O9,mp-17708,176,-6.29943223642857,4.459342943913941,-1.9895697175892848,450.89503911935327,3.1269,7.19718471039121,10.051238,2.0,1.0,1
NbSeOF7,mp-17921,62,-5.5396938339999995,3.1117966611428454,-2.7610205416923748,684.8668598904351,4.5147,7.325485,11.52219,0.0,1.0,1
SiF4,mp-1818,217,-5.71912202,1.9756821166735308,-3.497619108952,87.4773483866214,7.939999999999999,4.843647174401021,4.843647174401021,0.0,1.0,1
NbF5,mp-18687,12,-6.248819739999999,3.1448721768163863,-3.381477121825,396.8525390756369,4.5823,5.35852686983167,8.971222193258454,0.0,1.0,1
AlTl(MoO4)2,mp-18733,164,-6.827527051666666,4.340171856188125,-2.269040499999999,210.903081605927,3.8711,5.643070021361513,7.6475339999999985,2.0,1.0,1
TeF6,mp-1875,62,-4.079750473571429,3.3157412311342016,-2.413093083162857,483.9585495164157,4.3975,5.2811059999999985,10.11022,0.0,1.0,1
SbF3,mp-1880,40,-4.80696678,4.233887899207107,-2.7093038696425005,140.2162815669539,4.5411,4.6204188644721365,7.116117,2.0,1.0,1
TlV4O10,mp-18842,12,-7.187974773333334,4.383146082274744,-2.2262459768333334,215.2390377524059,0.04640000000000022,3.71376945,10.049393361721268,2.0,1.0,-1
LiV2O5,mp-18934,59,-7.116254046875,3.187448605902557,-2.3736212530729173,196.73706833349576,0.3474999999999999,3.62219515,11.4891817,2.0,1.0,-1
TlV3O8,mp-18996,11,-7.07571617125,4.689679528005833,-2.1979915929166665,343.6049443976069,2.1201,5.101013,8.560234,2.0,1.0,-1
VPO5,mp-19000,129,-7.357048242142858,2.9526030121905094,-2.4936883456887764,182.11837846301498,1.8545,4.6598190000000015,6.251617,2.0,1.0,-1
ScTl(MoO4)2,mp-19450,164,-7.1879614766666675,4.094883061904332,-2.4139004854166664,230.82533838174604,3.6236,5.901882223314947,7.651944,2.0,1.0,1
VPbO3,mp-20032,99,-6.890503820000001,6.981900647635635,-2.120193910750001,145.6213593813756,1.5,5.419376684200591,6.2661796895346855,2.0,1.0,-1
MoO3,mp-20589,62,-6.991800824375,4.439512925292148,-1.9788909653125,215.3524571710581,2.0181,3.761025,14.425446,2.0,1.0,-1
SnPbF4,mp-20815,129,-4.847618543333334,6.309453431939392,-2.613548633293333,211.54816570440784,3.4455,4.368471,11.085374,2.0,1.0,1
V2PbO6,mp-21126,12,-7.1050555327777785,4.870970149364439,-2.2172275302777797,276.18735001390024,2.2575000000000003,3.71437716,9.672694935527486,2.0,1.0,-1
P2O5,mp-2173,62,-7.023853649642858,2.677080584136963,-2.4445823544132645,352.1812959813127,4.856400000000002,4.940328,9.650206,2.0,1.0,1
VMoO5,mp-22006,85,-7.338065859285713,3.5841193448776267,-2.2030835101785726,210.227716418004,1.7999999999999998,4.654615000000106,6.720524000000595,2.0,1.0,-1
TlVO3,mp-22330,57,-6.5163180305,5.649783367499943,-2.01620693925,356.60106488025747,3.0073,5.305669,11.351662,1.0,1.0,1
OsF6,mp-22626,62,-4.8834290385714265,4.496786204188197,-2.0619097167342852,449.36082615493325,0.0,5.1607699999999985,9.77993,0.0,1.0,-1
P2Pb3O8,mp-22750,166,-6.611416644615384,7.344013687391832,-2.309121515164835,183.49617181821603,3.1976,7.5602088533670155,7.560209370702507,2.0,1.0,1
ZrCl3,mp-22871,193,-5.26652704875,2.5622243704138405,-2.1892136586950004,256.1011394509805,0.5388000000000002,6.0982129999999986,6.963685151314138,1.0,1.0,-1
TiClO,mp-22992,59,-7.193785741666668,3.0924748231496744,-2.72878292094778,106.6613332058094,0.0,3.268935,8.209572,2.0,1.0,-1
TiBrO,mp-23002,59,-6.95784545,4.141585310924563,-2.365150774861112,115.28743121189665,0.0,3.387106,8.408613,2.0,1.0,-1
SrIF,mp-23046,129,-4.5528681650000005,4.50943518471678,-3.0081868309522224,171.98333627568599,4.3096000000000005,4.282306,9.378448,2.0,1.0,1
VClO,mp-23061,59,-6.4879095625000005,3.0311853554554173,-2.187435390670001,224.37304380020385,2.0340000000000003,3.383939424775065,8.615743202576839,2.0,1.0,-1
SiCl2O,mp-23079,2,-5.337316388125,1.7369234000123748,-2.2926460275675007,439.73587264040196,5.5685,6.43487,8.573058203836831,0.0,1.0,1
Nb2Bi2PbO9,mp-23101,139,-7.33481169,8.031599020658431,-2.341503476517857,197.44037681167976,1.3340000000000003,12.86882012230251,12.86882012230251,2.0,1.0,-1
Sr3Fe2Br2O5,mp-23105,139,-5.830808191666668,4.747681631753044,-2.410422363020834,214.87550290611145,1.0993,4.010248354412038,13.658763083854401,2.0,1.0,-1
Sr2Co(BrO)2,mp-23114,139,-5.145579793571429,4.84201840479587,-2.2343706051190475,584.3483970130786,0.6519000000000004,5.801917092261316,17.837052077854853,2.0,1.0,-1
Sr2CoClO3,mp-23115,129,-5.681516332857143,4.6848328644819714,-2.4523552350490485,225.16394145088046,0.0,3.879538,14.960249,2.0,1.0,-1
MgCl2,mp-23210,166,-3.621912346666667,2.0551410707305204,-2.2525850121733337,76.9297968503222,5.6735,6.90807935592441,6.908079930991606,2.0,1.0,1
ScCl3,mp-23309,148,-5.08760208125,2.136561367793392,-2.564096572445,235.20440509943612,3.8786,7.45305550444816,7.453055756028798,2.0,1.0,1
Ti3(BiO3)4,mp-23335,139,-7.24285512263158,7.945260423456067,-2.4957709692105268,244.8437162714585,1.4192999999999998,16.841035515614205,16.841035515614205,2.0,1.0,-1
BClF6,mp-23398,14,-4.2103923471875,2.2044819657600776,-2.153324403383333,482.850352708859,3.3486,5.886799,10.09448360999992,0.0,1.0,1
SiCl2O,mp-23563,2,-5.325388121666667,1.6915074105659471,-2.2807177611091665,677.3137873144996,5.5652,6.793984,11.804384884067195,0.0,1.0,1
BaTa2Bi2O9,mp-23611,139,-7.9097958407142865,8.856651032724633,-2.793682702946428,198.96095993754082,1.9121,12.939761452833896,12.939761452833896,2.0,1.0,-1
V2O5,mp-25233,63,-7.430893384285714,2.678376182460305,-2.2834448866071426,225.5238434473975,2.4669,5.709628071530843,11.535495,2.0,1.0,-1
V2O5,mp-25279,59,-7.4422528407142865,3.012184513429082,-2.2948043430357146,200.53143762391144,2.3444000000000003,3.618658,11.551508,2.0,1.0,-1
V2O5,mp-25280,62,-7.433293684642857,2.9776746755080485,-2.285845186964285,405.71100384789736,2.3688,3.616677,11.578192,2.0,1.0,-1
V2O5,mp-25288,62,-7.429310595714285,3.173788638781332,-2.2818620980357136,380.64140975585184,2.4196,3.619298,10.333931,2.0,1.0,-1
V(PO3)5,mp-26152,11,-7.094370166428571,2.386448822890716,-2.4204026707908164,620.3950272017687,0.0,5.185423,13.797672,2.0,1.0,-1
LiSb(PO3)5,mp-26652,14,-6.841679422045454,2.560339364286252,-2.442164174542748,1358.246786926391,0.11150000000000004,9.672261,14.065381,2.0,1.0,-1
SnF4,mp-2706,139,-4.670952432,4.468959589894858,-2.732597953952,72.3463591377353,3.2016,5.113698230837931,5.113698230837931,2.0,1.0,1
TlPO3,mp-27144,114,-6.371676077,5.445596044619262,-2.2692890274642847,691.2337652993514,3.4619000000000004,7.793823,11.379518,2.0,1.0,1
Sn2IF3,mp-27167,20,-4.366338679166667,4.846051244260439,-2.065537558095,288.73726349130453,2.4336,7.397686021119915,9.353534,2.0,1.0,-1
Be2TlF5,mp-27187,15,-5.336442513125,4.2666207536218606,-3.2185388407437503,247.059487496718,4.8968,4.723362587857512,12.805198537726232,2.0,1.0,1
Sb2IF15,mp-27212,14,-4.1403285556944445,3.521115936724232,-2.413091494463889,1236.333235220152,3.8902,8.679932,15.193172,1.0,1.0,1
Li2TeO3,mp-27231,15,-5.312030663333333,3.5623440574912997,-2.0290068184027765,353.29465022955566,3.675,5.4795081080272166,14.087944208896484,2.0,1.0,1
Sb2I2F11,mp-27236,5,-4.079320255333333,3.7071607196843512,-2.283848309872667,316.3762567605739,0.0,5.5834400732814355,8.009783939815168,0.0,1.0,-1
Hg3As2F12,mp-27292,14,-3.7649680835294133,5.241141191568866,-2.1605045828988234,620.725185876835,2.6377,6.118012,11.563453301934722,0.0,1.0,-1
SbBrF8,mp-27308,54,-3.82103161025,3.406920986554601,-2.1079987252020005,689.4808284399388,2.6921,5.9903910000000025,11.237241,1.0,1.0,-1
VF5,mp-27309,62,-5.245030737916667,2.601466547770234,-2.8275879480750006,745.2052140420572,2.9919999999999995,5.525908,17.404118,1.0,1.0,-1
Nb2SeF14,mp-27312,14,-5.581172119117646,2.913708105449569,-3.0172766231766914,1209.9108762964847,4.8407,7.823616,17.597017,1.0,1.0,1
NbSeF9,mp-27313,146,-5.2143245209090905,2.996429249867315,-2.8159456370957963,759.9967924487413,5.044899999999998,9.141319595527989,9.141319795195713,0.0,1.0,1
SbClF8,mp-27314,2,-3.736631128,3.0830023529411856,-2.061905799278,333.07730272765593,3.1793,5.433116,10.637420706121619,1.0,1.0,1
SbAsF8,mp-27317,11,-4.5970055075,3.460529770865645,-2.581753435952,334.61824896799646,3.8839,5.736665,8.358541,1.0,1.0,1
Sb3(BrF8)2,mp-27318,15,-4.176753420714285,3.471291850201712,-2.348674423525714,793.1863111934875,0.056200000000000035,7.882314350278668,14.812190919617025,0.0,1.0,-1
BSF7,mp-27349,62,-4.854547717777779,2.263450656344841,-2.621632987291296,516.0800076949048,5.0319,5.815232,9.763841,0.0,1.0,1
SnClF,mp-27373,62,-4.236172174166667,3.9154214361067923,-2.0081811856500003,293.7525674138254,3.6986,4.403681,10.537812,1.0,1.0,1
KSb2F7,mp-27389,14,-4.7613224955,3.8367914771567095,-2.8300972591330003,719.4885280696429,4.1638,7.6447699999999985,10.997782282346973,2.0,1.0,1
SnAsF7,mp-27405,155,-4.618189775555557,3.756482687996773,-2.5501296425922217,433.1439937771858,3.4086,7.866225033726153,7.866225216181903,0.0,1.0,1
Sn2BF7,mp-27430,62,-5.33352791025,3.5939245626180547,-2.869289268499667,704.5561441572072,4.398,5.45837,14.317783,1.0,1.0,1
Sn3BF9,mp-27431,14,-5.2311924634615385,3.9990589350324393,-2.808649498836667,893.4583826828157,4.362500000000002,7.7900649999999985,10.958989445056007,2.0,1.0,1
YCl3,mp-27455,12,-5.286558805,2.2995165865917744,-2.729552794111667,282.01137025879706,4.9757,6.993019416544545,7.06619981223189,2.0,1.0,1
NbSbF10,mp-27472,2,-5.375688022083334,3.2751764657883347,-3.006037387241667,410.32159607928185,4.3644,5.793377,9.902902488970543,1.0,1.0,1
Sb2TeF14,mp-27473,14,-4.438167728529412,3.8174170572659,-2.5976380059799995,1108.5249660271122,3.9836,7.611064,14.565431,0.0,1.0,1
TcOF4,mp-27477,176,-5.722598378888889,3.0443113197566984,-2.3411840598905562,621.7974188539583,0.9972,8.289036999999999,9.306944055772766,0.0,1.0,-1
Sn2OF2,mp-27480,12,-5.2420240389999995,4.856631318048481,-2.220842149726,199.27722064025875,2.6657,5.227989050681439,6.229034260359306,1.0,1.0,-1
MoOF4,mp-27511,14,-5.457725474375,3.0198122971974373,-2.58397396871,826.7271709512731,4.1737,5.650448,17.866939000000006,1.0,1.0,1
Sc7Cl10,mp-27513,12,-5.396470237647059,2.4948905405582256,-2.051423561035294,445.41763827741966,0.0,10.050714341566076,12.664339434169195,2.0,1.0,-1
Te5(O2F11)2,mp-27575,88,-4.291687448870968,3.5522774861171773,-2.228743272457419,1047.0699107787548,2.8665,12.575136770920349,12.575136770920349,0.0,1.0,-1
Y2Cl3,mp-27678,12,-5.54515419,3.4328857956278345,-2.206255158622666,274.91537850403085,0.8567000000000005,8.148977711710161,10.37221752317724,2.0,1.0,-1
BiF5,mp-27743,87,-3.985581465,4.846229250580584,-2.153450635158333,104.1548069308352,1.9043,5.3532976782700965,5.3532976782700965,1.0,1.0,-1
AlTl2F5,mp-27758,63,-4.939451533125,5.730455834989464,-2.9929974757437496,307.58975771017134,4.0710000000000015,6.365142108888064,7.592248,1.0,1.0,1
NbCl3O,mp-27815,136,-5.7343924535,2.6497454158015685,-2.1126877657060006,539.6074275232534,2.4319,3.870291,11.80775,1.0,1.0,-1
TaCl4F,mp-27854,82,-5.2610777725,3.0548814921974063,-2.2121224940383337,743.0769174349033,3.0973,10.237354781170477,10.237354781170477,0.0,1.0,1
AlClO,mp-27863,59,-5.86554777,2.6422782127521254,-2.7838503448366674,98.58357728117396,5.5973,3.1699,8.495486,2.0,1.0,1
BF3,mp-27896,2,-5.8691233221875,1.823503152759296,-3.1338627791216664,493.97166033298566,8.1393,4.814145,14.311271209310371,0.0,1.0,1
AsF3,mp-28027,33,-4.728915195625,3.0633850037757813,-2.4987229940175,286.02740512477493,5.4005,5.379914,7.469264999999999,0.0,1.0,1
Sb2F7,mp-28062,11,-4.726143708611111,4.182527209364789,-2.703715551203333,597.9232910809567,3.8313,4.91639,11.06527,1.0,1.0,1
KAs2F7,mp-28085,14,-4.68852296225,3.066337436152921,-2.651274292883,697.3503578119223,4.7859,7.467767,11.119054002878348,2.0,1.0,1
TaClF8,mp-28185,54,-5.0755462845,3.669439521998079,-2.627943316778,666.8297295565961,3.484,5.995907,11.004802,1.0,1.0,1
SOF2,mp-28257,14,-4.778024239375,1.9327255504650431,-2.1380853385637497,591.5293883771137,5.2926,5.437658,15.019200142406586,0.0,1.0,1
Sn5BF13,mp-28271,14,-5.1203802903947375,4.099409360990342,-2.7417275122177203,1379.4023535175436,4.1516,7.771872,14.534798971255881,2.0,1.0,1
Ge(SF6)2,mp-28291,58,-4.273649299666667,2.6723963545353007,-2.365942020035334,453.2883123496288,4.9824,6.128832,9.666468,0.0,1.0,1
Sb11F43,mp-28294,14,-4.658658033888889,4.026649529690894,-2.686386378447593,1778.4542601257058,3.5093,9.289073,16.957828278036814,0.0,1.0,1
NbHg3F6,mp-28357,162,-4.3144607760000016,7.2374005851250525,-2.360896082214,185.53937924810555,0.0,5.279960440836655,7.685005,0.0,1.0,-1
Ta2AgF12,mp-28375,2,-6.090522784,4.669536476484219,-3.1842085927297776,248.12580479775949,0.7169999999999996,5.396864,9.375929874721814,2.0,1.0,-1
Sb(IF3)2,mp-28431,2,-3.820257372222224,3.9510776211735807,-2.075776564126667,411.4990993924328,0.5843,6.204999,8.347272440469043,0.0,1.0,-1
Sc2NCl2,mp-28480,164,-6.922966126,3.086230585058144,-2.29794365578,94.06392163542117,0.0,3.3696620916539985,9.565766,2.0,1.0,-1
TlMo6O17,mp-28484,164,-6.928450235833334,4.4185123578531975,-1.9940408971354169,395.36131386395743,0.0,5.630877659122954,14.398304,2.0,1.0,-1
Y2NCl3,mp-28580,12,-6.58019306,3.405541228650648,-2.472365169248889,290.7821037735012,2.0584,8.460702894594101,10.78639711048031,2.0,1.0,-1
TcO2F3,mp-28804,2,-6.034717819791666,3.1821576685519783,-2.1824509449700003,780.6297248678351,2.5594,8.071793,11.968385133550182,1.0,1.0,-1
Ti6CCl14,mp-28913,64,-5.5297422435714285,2.710646895675758,-1.9986162209828573,974.7117273553316,0.9617999999999998,9.358328426676264,11.143779,2.0,1.0,-1
Si2Cl2O3,mp-28959,148,-6.425247079642857,1.8133602993143647,-2.6973433082528566,641.2828367373651,5.6781,8.671137191094662,8.671137632836535,0.0,1.0,1
AgBi2F12,mp-28965,2,-3.8818605073333337,4.985525169080717,-2.037912092063112,251.07298489106608,0.3628,5.416455,9.225478422632293,2.0,1.0,-1
TiF4,mp-28974,62,-6.426766062,2.7088273335045394,-3.7112275516186672,911.1339825473063,4.166,3.913221,23.597725,1.0,1.0,1
Sr(BiO2)2,mp-29048,12,-5.89905644857143,6.658228862791938,-2.1201690559523807,284.10173461502916,2.5682,6.43951779505795,10.369013918508598,2.0,1.0,-1
SeF4,mp-29172,19,-3.9318347445,2.9862976627761983,-2.0962123419207503,344.64953815220935,4.1432,5.389344,11.066188,0.0,1.0,1
BaTe2F10,mp-29177,15,-4.655440633846154,4.572643947974345,-2.9315118624538457,423.0735374837059,4.9243,9.166433526408511,10.480289738093932,2.0,1.0,1
TlSbF4,mp-29286,14,-4.551111145416667,5.828476622808098,-2.522302019543333,458.2769028965212,3.8998,7.1076820000000005,8.483202123294308,1.0,1.0,1
Y2InCl7,mp-29304,62,-4.85536074325,3.057108606653604,-2.4092024638653333,1174.9935054844188,4.0139,6.986001,13.231258,2.0,1.0,1
HfCl4,mp-29422,13,-5.303163919,3.218358436543687,-2.3086453676080003,330.52501428729124,4.1843,6.323724,7.943159,1.0,1.0,1
Ge7F16,mp-29500,9,-4.884790739565218,3.6170387614975215,-2.4895734732191306,745.9761672513043,4.3804,9.997549851316824,10.43556337533916,2.0,1.0,1
PHF4,mp-29514,14,-4.804572797916667,2.101439347317869,-2.4153689549085717,341.28461272541733,7.5495,4.701983,9.981743686755586,0.0,1.0,1
FeAs4F18,mp-29757,14,-4.606019874782608,3.1210415413886388,-2.4345686178878263,742.2076230916133,3.0699,7.497711,13.173937,2.0,1.0,1
CoAs4F18,mp-29758,14,-4.5738152521739135,3.2050281744789517,-2.4242198685399994,725.9583486401218,3.4338,7.423508,13.140976,2.0,1.0,1
TlTeF5,mp-29903,62,-4.239546440357144,5.323625432675744,-2.4384457862071427,532.7265801534951,4.5124,4.952243,17.127311,0.0,1.0,1
VRe2O9,mp-29931,36,-8.061536358749999,4.6990589823080615,-2.1863738871875,400.97688028026283,1.8881,8.142027979735394,9.179852,2.0,1.0,-1
SbClF10,mp-29940,57,-3.5006746327083333,2.973958697226036,-1.8683118364716669,775.44350024946,2.3509,5.999575,15.438805,0.0,1.0,-1
AsPbF7,mp-29992,2,-4.6188116838888895,5.3845153352231465,-2.583743193703333,256.033098778225,4.2183,4.772202,7.675849503914338,1.0,1.0,1
Ba(AlCl4)2,mp-30023,13,-4.048882445,2.1263669950406454,-2.2815251446436364,741.7471963289328,5.3911,7.236809,12.802359612022347,2.0,1.0,1
Sb2(AuF6)3,mp-30109,14,-3.8914920995652182,5.3053283682817955,-1.9936855991921736,736.4080104795503,0.16720000000000002,8.698363,10.387181636613947,2.0,1.0,-1
CaSn2F6,mp-30146,2,-5.196742450555557,4.075584624912455,-3.135848629126667,319.01279155357565,3.6288,4.49578,9.97323499387666,2.0,1.0,1
Sb2BrF15,mp-30213,14,-3.9319029040277775,3.4660007533900488,-2.1983928469638894,1165.9224791999038,2.9704,5.3769800000000005,14.872297,1.0,1.0,-1
SbIF10,mp-30214,73,-3.956086777916666,3.851917694174583,-2.301210511825,756.3951588873746,4.1022,12.22101035411234,12.22101035411234,0.0,1.0,1
TlBF4,mp-30548,62,-5.404401059583333,4.815191537465884,-2.9505268452377766,401.6695088150811,5.8882,5.783311,9.300406,0.0,1.0,1