pretty_formula,task_id,spacegroup.number,final_energy_per_atom,density,formation_energy_per_atom,volume,band_gap,min_abc,max_abc,Dimension,Dim,is_uv
C,mp-569304,166,-9.2267807,1.2743710183702888,0.0,62.60103621225793,2.6904,11.939781671497895,11.939781885576847,2.0,1.0,-1
B3H5,mp-569405,14,-4.686432697604167,0.8115989554964317,-0.15682537017916687,920.0339432608656,3.6983,7.1260460000000005,13.650182200865489,0.0,1.0,1
C,mp-569416,166,-9.19800999625,1.5831384782625817,0.028770703750000237,100.78328252927292,1.5470000000000002,19.141180726217204,19.141181279926407,2.0,1.0,-1
NbI5,mp-569578,2,-3.3843401783333333,4.301490815757599,-0.4307788258333331,561.6303165903554,0.9944,7.673431816385078,10.739259519583078,0.0,1.0,-1
SbBr3,mp-570005,62,-2.868127939375,3.702298811760482,-0.6081827243749998,648.5034385397063,3.1189999999999998,7.1701380000000015,10.34172,0.0,1.0,1
PBr2N,mp-570315,86,-4.580920201875,2.822325779342844,-0.4210174196128573,963.912087056398,2.9781,6.784853,11.919238,0.0,1.0,-1
SeBr,mp-570589,41,-2.65335850375,3.6389186715224646,-0.0869394949218747,289.9761188297981,1.5484,4.469745559071678,15.112225,0.0,1.0,-1
N2,mp-570747,136,-8.3291500425,1.0563212303584673,8.881784197001252e-16,88.074240584006,6.7967,4.061881,5.338196,0.0,1.0,1
H2,mp-570752,194,-1.11206167,0.038512799428188985,0.0,86.91779209193203,6.6942,3.811892,5.131197289990904,0.0,1.0,1
Cl2,mp-570778,138,-1.813558165,0.8294266336799658,0.0,1135.6489244522654,2.6885000000000003,8.203525,11.765809,0.0,1.0,-1
BeI2,mp-570886,72,-2.8394270566666666,3.5881790810132945,-0.5769476916666667,243.25694496017127,4.0802000000000005,7.554103032049537,7.554103032049537,1.0,1.0,1
SbI3(BrCl3)2,mp-570962,2,-2.310536583333333,2.9890374225489,-0.6857034145466668,486.0998703448587,1.1707,7.668201,8.088470474900184,1.0,1.0,-1
Mg(BH4)2,mp-571156,26,-4.027165156818182,0.8128875478036385,-0.3110781674812118,220.5800000954261,6.0803,4.311885,8.390713,2.0,1.0,1
PNCl2,mp-571213,86,-4.933022128125,1.870374845648976,-0.9646571274928566,823.0820592512248,3.8549,6.3293,11.403646,0.0,1.0,1
CNCl,mp-571324,15,-6.440044226666667,1.6533442580006001,-0.29567627187999945,370.42739337166495,3.7938,7.659546781391834,8.275583682556839,0.0,1.0,1
SnI4,mp-571436,215,-2.375880722,3.4791113138617904,-0.3547562590000002,298.9389586636472,1.7788,6.686428,6.686428,0.0,1.0,-1
SiBr4,mp-574086,14,-3.2282715185,2.5233342586073007,-0.8336674825000003,915.2523844923936,4.2666,7.340151,11.381128135242875,0.0,1.0,1
Os(SeCl6)2,mp-582444,43,-3.047910462,2.916757472655091,-0.8302191869205003,880.8204222790579,0.0,8.950204796643705,12.789481745064885,0.0,1.0,-1
Zn(BH4)2,mp-604315,26,-3.8102571531818175,1.8341805490791936,-0.12512802202666634,172.18388403349826,4.2519,4.232956,8.160898,2.0,1.0,1
CuP10,mp-606644,2,-5.336848699772727,2.6923790005261363,-0.04302458301948064,920.8986310036432,1.0431,7.247282000000001,11.938738661021564,2.0,1.0,-1
FeSeBr7,mp-607953,7,-2.755869966666667,3.4465397481452755,-0.15315884026041676,668.8650345823157,0.0826,6.753771,14.735109926929354,0.0,1.0,-1
O2,mp-610917,166,-4.935852455,1.4668662819670022,0.012103013750000002,36.22365456043346,1.3136,4.2052761010312985,4.205276447362289,0.0,1.0,-1
Hg,mp-611219,166,-0.21932567,3.9533286686092426,0.08435469500000001,84.25495558062774,1.7609,8.027599087823768,8.027599130707635,0.0,1.0,-1
O2,mp-611836,12,-4.937990895,1.4388402246389522,0.009964573749999595,36.92922714726946,1.3522999999999998,3.3089568672163128,4.273827509046428,0.0,1.0,-1
PS,mp-612,15,-4.912246278125,1.699293239003449,-0.4691084139732151,492.8087730048909,2.5182,7.268822893759966,9.620034508109883,0.0,1.0,-1
CsCSN,mp-614311,62,-6.103475110625,2.847600440170983,-0.7165638289840093,445.4877655615508,4.3852,6.439578,8.509803,1.0,1.0,1
V2P4S13,mp-620190,2,-5.239453874473685,2.1596219528320897,-0.7673578821005639,988.2291434407672,0.0,9.507273,11.996781320545692,2.0,1.0,-1
AgSbS2,mp-627601,9,-3.902548620625,3.6371785214890067,-0.4256643763541668,536.4564476031263,1.5721,7.445790643688285,13.579044425453393,2.0,1.0,-1
H2,mp-632172,139,-3.3920828000000003,0.1070731415203888,4.440892098500626e-16,31.263185576190356,9.4428,3.5226097362052475,3.5226097362052475,0.0,1.0,1
HBr,mp-632229,36,-2.7663866375,2.376161273176409,-0.3280550368099999,113.08781002460206,4.944599999999999,4.6024888514596105,5.540272,0.0,1.0,1
H2,mp-632250,229,-1.12145603,0.023670127850447698,4.440892098500626e-16,70.7103805,7.3872,4.5119923537169235,4.5119923537169235,0.0,1.0,1
H2,mp-632291,139,-3.39133986,0.1421393070441629,4.440892098500626e-16,23.55047005074783,9.0012,3.1559621158344084,3.1559621158344084,0.0,1.0,1
HCl,mp-632326,36,-3.1293465125,1.2173797345643775,-0.8825526934400001,99.4674275510652,5.9709,4.383799288493601,5.368192,0.0,1.0,1
C,mp-632329,12,-9.214551855,2.0281271176628928,0.012228845000000987,19.667639561168443,0.0,2.4646862996202987,3.738129474550875,2.0,1.0,-1
BH3,mp-634117,14,-4.24439884875,0.5749148817169997,-0.14474841000666672,159.83763732654631,5.2841000000000005,4.310509,6.6194320000000015,0.0,1.0,1
NaHS,mp-634657,11,-3.62628152,1.7569317018298654,-0.950488605026111,105.97374825887596,3.1638,3.967974,6.028481078807246,1.0,1.0,1
H2,mp-634659,225,-1.11598378,0.041849643466743434,4.440892098500626e-16,39.993739686668036,7.5517,3.838565931223795,3.838565931223795,0.0,1.0,1
As2S3,mp-641,14,-4.4731227035000005,2.8338092703075497,-0.5256814213750005,576.6881310704499,2.1971,4.600644,12.25978561965665,2.0,1.0,-1
LiBH4,mp-644223,186,-3.9769783975,0.7125420792906043,-0.3857681836633334,101.53164437236177,6.757099999999999,4.180003435420239,6.709922,2.0,1.0,1
Sr(AlH)2,mp-644229,164,-3.487980546,2.837524169952092,-0.3559592987813332,84.03511796611319,0.0,4.539483598101,4.708876,2.0,1.0,-1
VAg(PS3)2,mp-6462,13,-5.111443426,2.9716169120702234,-0.7533461262559527,461.7332085591044,0.028599999999999962,5.893056,10.820419,2.0,1.0,-1
Re(SeCl6)2,mp-652695,43,-3.2021568893333328,2.9799668315370726,-0.9033194319205003,857.6534558612907,0.9031,8.862519897318709,12.724391098144462,0.0,1.0,-1
VAg(PSe3)2,mp-6543,5,-4.559408228000001,4.364013947088939,-0.18755796178720274,264.2688581799528,0.0,6.4398667218669985,7.674884147233625,2.0,1.0,-1
Te2S4(NCl3)3,mp-669465,2,-3.785730409444444,2.4208056100353668,-0.7123617049433327,1021.4501707523227,2.119,9.513501,11.507789868636374,0.0,1.0,-1
N2,mp-672233,194,-8.3226084475,0.9851330091447384,8.881784197001252e-16,94.43870960872043,6.6385000000000005,4.043190647503652,6.670694,0.0,1.0,1
N2,mp-672234,198,-3.1240641875,0.5361421203459383,8.881784197001252e-16,173.52617271807617,3.0175,5.5776980000000025,5.5776980000000025,0.0,1.0,1
Sn7(SBr5)2,mp-674324,1,-3.400583021052632,3.746895641882797,-0.6962541726973684,750.8043786552089,2.0181,6.70564,11.420516435793171,2.0,1.0,-1
CuSi2P3,mp-674984,8,-5.2312066575000005,2.667371997793621,-0.03292460845238073,264.75060940126383,0.0,6.441671685555076,11.476084258633733,2.0,1.0,-1
LiBH4,mp-675926,2,-3.9809542341666666,0.8591874231450204,-0.38974402033,84.20231377463467,5.6481,4.072911,5.0666901905511255,1.0,1.0,1
NiPS3,mp-676040,12,-4.909807912,3.1770513301547467,-0.5873294835892857,194.28794119527507,0.0,5.821405871013117,6.8959473764758386,2.0,1.0,-1
HCl,mp-684609,44,-3.07577979,1.1408482645106668,-0.8289859709399998,53.06999813943488,5.1812000000000005,4.182735563257377,4.182735563257377,0.0,1.0,1
BBr,mp-685043,1,-4.5004508197222215,2.711940244033625,-0.342291664305555,999.8171720945642,1.4283,9.944692,10.091417960869967,0.0,1.0,-1
P4S5,mp-690,4,-4.8656881044444455,1.7039797209479557,-0.5303444622123021,553.9484859037733,2.4934,6.920533,11.562101,0.0,1.0,-1
PH3,mp-696588,1,-3.683579978125,0.5707185863796979,0.09954398326714298,395.6718034297767,0.0,7.318538,7.829572022578563,0.0,1.0,-1
B5H9,mp-696597,107,-4.6147286535714285,0.7376104233225467,-0.14654373881523802,142.11289544145203,5.7318,5.810151853419409,5.810151853419409,0.0,1.0,1
H2S,mp-696805,57,-3.7894059458333333,1.189327969943855,-0.4719182159549996,380.66964937705575,4.3704,4.134278,13.54941,0.0,1.0,1
HI,mp-697025,15,-2.445726976875,2.88167516890764,-0.06385233868499984,589.6668887589368,4.084899999999998,8.742547146149112,9.869371651649157,0.0,1.0,1
H2S,mp-697135,142,-3.7434144975,0.9103993392461752,-0.4259267676216663,497.29941773434234,3.5428,8.837530757740481,8.837530757740481,0.0,1.0,1
S,mp-7,148,-4.071945905,1.6885442388010592,0.064503961875,189.19913596697504,2.4881,6.639796845320648,6.639797230082633,0.0,1.0,-1
NbSe2,mp-7007,42,-6.52769583,3.2108137526211538,-0.8299864982291668,129.72007566114368,0.0,3.4847936744392776,12.702814766963265,2.0,1.0,-1
B5H7,mp-706630,13,-4.844981331354167,0.9855374776142912,-0.17205504103527738,823.7251877481569,3.5580000000000003,5.6360790000000005,14.3144247360129,0.0,1.0,1
H2S,mp-721582,77,-3.7773877947916654,1.1344269849827948,-0.4599000649133333,798.1845765414673,4.0299,4.280449,13.655481,0.0,1.0,1
P4S5,mp-7260,11,-4.852970718333333,1.7792501754197054,-0.5176270761011905,530.5139206785211,2.6135,6.7922410000000015,12.257145,0.0,1.0,-1
H2,mp-754417,191,-3.01370105,0.24165290766723715,4.440892098500626e-16,6.926147766835767,0.0,0.984187,2.8506358329069323,1.0,1.0,-1
N2,mp-754514,74,-7.298673005,1.6315213420227783,8.881784197001252e-16,28.511637506757776,0.0,4.375328272421396,4.375328272421396,1.0,1.0,-1
INO3,mp-754661,19,-5.1157650055,3.218138415931831,-0.6730687637259998,389.9041599687847,1.6497000000000002,4.342469,12.096245,1.0,1.0,-1
NClO3,mp-754712,19,-5.11552702,1.884822281528868,-0.7268631058779995,343.44383952746165,2.943,4.107239,11.951562,0.0,1.0,-1
BPH9C2,mp-758984,14,-4.873907922115385,0.9149187476653472,-0.2813026156013921,543.598945206386,5.6089,6.615568,12.18343213782233,0.0,1.0,1
TeH3CCl3,mp-759866,14,-3.893309380625,2.4632789585076202,-0.6619538125799997,671.4034005157832,3.1232,6.6873619999999985,10.919097070819086,1.0,1.0,1
F2,mp-760482,64,-1.9080132875,1.3363114295141898,0.0,94.43185179696457,3.0950999999999995,4.111992855991484,6.375726,0.0,1.0,1
Hg(ClO3)2,mp-761037,4,-3.7187893072222216,4.0152082704623036,-0.5759698482244444,303.96205913788503,2.6232,5.617237,9.448586131781305,1.0,1.0,-1
CrP2S7,mp-768680,5,-5.222756272,2.1314623017628107,-0.7437014459017859,263.6331568102092,0.0,6.3928348660735015,6.53536938748316,2.0,1.0,-1
Ni(PS3)2,mp-769218,5,-4.7287632,2.6351997817815174,-0.5682467995436511,197.25262651793577,0.3245,5.8233265788799775,6.973343199511263,2.0,1.0,-1
Na(BH)5,mp-776332,14,-4.943823355681818,1.136497593144186,-0.3156147758878783,959.4703504719156,4.7322,6.743436999999999,13.342207,1.0,1.0,1
TlPS3,mp-8249,71,-4.363221823,4.023799379790613,-0.7244401345892854,273.64940425605147,1.7792999999999997,7.158461026949438,7.158461026949438,0.0,1.0,-1
Fe4S5,mp-850083,75,-6.510266769999999,2.0308057111291875,-0.8163822306250003,627.4919743016428,0.0,7.891269082407848,10.06905431953935,2.0,1.0,-1
Fe4S5,mp-850249,3,-6.509160736111111,2.023970641848148,-0.8152761967361121,629.6110520337843,0.0,7.853873030540855,10.204747708028897,2.0,1.0,-1
H2,mp-850274,139,-3.389195785,0.1468500914916668,4.440892098500626e-16,22.794997671265076,8.8621,3.095973315337844,3.095973315337844,0.0,1.0,1
MnPS3,mp-8613,12,-5.803183687000001,2.6833312665172486,-0.8043913005203202,225.3880995541573,0.2185999999999999,6.067399447288599,7.345929809549503,2.0,1.0,-1
SeI2,mp-861871,136,-2.11411731,3.9256338216107167,0.06719492588541669,281.52183832283436,0.9788,3.933051,8.460407,1.0,1.0,-1
SeBr2,mp-861891,136,-2.291604725,3.223955957001968,-0.03501653911458321,245.9609232519716,0.8981,3.672546,8.183695,1.0,1.0,-1
Sr3Co(CN)3,mp-862670,176,-7.0976852865,3.7151017582157455,-0.7262332647139992,357.43779966688624,1.1090999999999998,5.43335,8.715676149688731,0.0,1.0,-1
TeI2,mp-862773,136,-2.099292263333333,3.8617540337971215,-0.0355168766666667,328.00869225622375,0.8206,4.176314,8.862293,1.0,1.0,-1
BrCl,mp-864928,186,-1.699305805,2.401656937346041,-0.25391704663000003,159.51887392997472,1.3584,4.394768232320904,9.53695,0.0,1.0,-1
VBr3,mp-865473,194,-4.277699185,3.3521697686378094,-0.7790277625000006,287.95766617163287,0.0,3.363495,9.942683198232759,1.0,1.0,-1
VI3,mp-865493,194,-3.79189942375,3.956815624286532,-0.3779134450000004,362.3013601873109,0.0,3.681096,10.660586610349826,1.0,1.0,-1
LiMg2,mp-865939,139,-1.75423565,1.4748130396346129,-0.051074661111111176,62.54664368274796,0.0,5.755831734113933,5.755831734113933,2.0,1.0,-1
H34C19,mp-866659,4,-5.6284630335849055,1.0762719064209587,-0.2424275659071696,809.9200575015058,5.6469000000000005,7.334599000000001,10.838928975373905,0.0,1.0,1
BP4(SBr)3,mp-867154,11,-4.44158993,2.444847297308068,-0.4722913448024894,639.2802955964984,2.6777,6.732695,11.133402,0.0,1.0,-1
H6C2SBr2,mp-867563,14,-4.389224009090909,2.208416939102777,-0.3311490713495457,667.5250880671646,2.4008,7.552474,11.612652647778456,0.0,1.0,-1
SiH9C3Cl,mp-867818,11,-5.012605363214286,0.9875720664367856,-0.4756670025600001,365.3493067231237,5.6061,6.6089910000000005,7.988405999999999,0.0,1.0,1
MnPSe3,mp-8695,148,-5.270124787,4.014945186219659,-0.25757943405157063,267.0065871592111,0.0,8.362362104550362,8.362362606574413,2.0,1.0,-1
SnS,mp-8781,39,-4.4647984225,2.5716939152366627,-0.7235175615625007,194.7104017964553,1.5319,4.162949352257123,11.236193,2.0,1.0,-1
SnSe,mp-8936,129,-4.1390249925,2.90873026241068,-0.3862833261718753,225.69212521121585,1.6171,4.321939,12.082565,2.0,1.0,-1
Al2Te5,mp-9254,12,-3.640196042857143,4.456917871194074,-0.3248165699999999,257.8085922923927,1.1257,7.797655665214385,10.55346596911138,2.0,1.0,-1
CdPS3,mp-9330,148,-4.154215427,3.1523476379824418,-0.8031863825892855,252.40335144149856,1.9889,8.196846223743192,8.19684644148547,2.0,1.0,-1
C,mp-937760,69,-9.22260534,1.895030051680634,0.004175360000001405,21.0489923888276,0.4304999999999999,2.4681182219079383,4.526475107220297,2.0,1.0,-1
Li(BH)5,mp-941221,181,-5.0185921722727285,1.0092886965773695,-0.3363589879333328,651.874097146624,4.9993,7.087842666830647,14.983214000000002,1.0,1.0,1
S,mp-96,13,-4.136449866875,1.4777529035873205,0.0,1152.997853241063,2.7405,9.248054,13.642060999999998,0.0,1.0,-1
C3N4,mp-971684,63,-8.42382443,1.9438842012271318,0.07477997721142872,314.56071258096733,1.2641000000000002,7.132930503366059,7.137645,2.0,1.0,-1
SiH8,mp-972825,119,-3.6101769577777776,0.5069510794667371,-0.12759836766222166,118.4075986038872,7.3467,5.489371481523454,5.489371481523454,0.0,1.0,1
SbSI,mp-973217,62,-3.573455406666667,4.345834644846431,-0.5314541660416671,429.0657976448485,1.5291999999999994,4.132573000000002,10.854124,1.0,1.0,-1
LiMg2,mp-973455,12,-1.742861175,1.4629119866582043,-0.039700186111111264,126.1109438297995,0.0,5.731237029420612,7.134949336952642,2.0,1.0,-1
H2,mp-973783,64,-3.389319175,0.15338439812659702,4.440892098500626e-16,43.64782252253278,8.8847,3.4083747067471912,3.75738,0.0,1.0,1
Rb3Hg,mp-974951,221,-0.843029525,2.991588058399916,-0.031708879375,253.6630642536535,0.0,6.3302239999999985,6.3302239999999985,0.0,1.0,-1
Rb3Cd,mp-975019,221,-0.91186072,2.4347388218027315,0.054262274374999975,251.5385691641383,0.0,6.3125019999999985,6.3125019999999985,0.0,1.0,-1
Li2Mg,mp-976982,63,-1.8321014233333333,1.0423865906742342,-0.02605949555555576,121.66504424282516,0.0,5.009274,7.7793977364467635,2.0,1.0,-1
Na(BH)6,mp-978278,14,-5.077175282115385,1.227698391528994,-0.3979889121194867,508.0409998816438,5.6438,6.856777,10.590845,0.0,1.0,1
Mg3Cu,mp-978279,44,-2.2321934825,2.9668936378844286,-0.0071817775000000425,76.37578195384211,0.0,5.679056295702923,5.679056295702923,2.0,1.0,-1
Si(H3C)4,mp-978526,205,-5.095334669779412,0.998370777193902,-0.31831838998176504,1173.902157649854,6.1296,10.548984,10.548984,0.0,1.0,1
Si(H3C)2,mp-978595,2,-5.094520789583333,1.0725710208228592,-0.28148796866333314,720.2721960253376,3.5359000000000003,9.033571,9.716684016430968,0.0,1.0,1
SnH4,mp-978992,11,-3.316692233,3.4915306281156218,0.07701146710400053,116.74964896025641,0.0,4.050112,6.2130412986185775,0.0,1.0,-1
Rb3Cd,mp-982205,139,-0.897214385,2.4151268548696314,0.06890860937499999,253.5811807523866,0.0,7.783570958833869,7.783570958833869,0.0,1.0,-1
K3Hg,mp-983365,139,-0.9650776725,2.563621099234036,-0.056358371000000074,205.90417799648688,0.0,7.257777114117725,7.257777114117725,0.0,1.0,-1
H2C,mp-985782,62,-5.5052453425,1.025447100436641,-0.2698273349133332,90.85474638671269,6.43,2.563076,7.178829,0.0,1.0,1
C,mp-990448,191,-9.21952875,0.7559985807980227,0.007251950000000562,52.76262964980629,9.9999999999989e-05,2.468416031949436,9.999058,2.0,1.0,-1
Si3H,mp-995193,164,-4.88155297125,1.939858891153836,-0.002633290904999973,145.97446675882333,0.9321000000000002,3.861817073229648,11.302199,2.0,1.0,-1
HC6,mp-995202,2,-8.35463832857143,1.8498845407708675,0.016850365911429726,131.18563940158248,0.0,2.46457,14.296846474583548,1.0,1.0,-1
AgNO2,mp-996960,5,-5.42361380125,3.945509421071105,-0.604524019136667,129.52106453362518,1.4771,4.621954126186239,7.561141357368872,1.0,1.0,-1
C,mp-997182,194,-9.2190248725,1.008380923121407,0.007755827500000478,79.11389876546238,0.00010000000000001674,2.4680316454899844,14.997562,2.0,1.0,-1
Br,mp-998864,71,-1.55302833,3.423121443241446,0.08389820999999986,38.76103018184613,0.0,4.538248320136527,4.538248320136527,1.0,1.0,-1
SiP2,mp-9996,55,-5.5424217350000005,2.110661776567977,-0.12512648738095322,566.6596336594829,1.4852000000000003,3.448904,15.964942,2.0,1.0,-1
NiS2,mvc-11598,166,-4.906191296666667,2.9713796264774164,-0.6641524920833332,68.63917763157905,0.6078000000000001,7.349769462262949,7.349770138316432,2.0,1.0,-1
Sb2S5,mvc-15221,14,-4.0885537053571435,2.8605711712190534,-0.42813201758928543,937.7153850925454,0.0,7.8224339999999986,13.720180422589927,2.0,1.0,-1