,pretty_formula,task_id,spacegroup.number,final_energy_per_atom,density,formation_energy_per_atom,volume,band_gap,min_abc,max_abc,Dimension,Dim,is_uv
1708,Nb2C,mp-2318,164,-10.25826145,7.645160328135297,-0.4484645233333341,42.96752056475237,0.0,3.1479202692636608,5.006823000000002,2.0,1.0,-1
1709,SnI4,mp-23182,205,-2.3952767285,3.4910330908491938,-0.3741522655000001,2383.344726160168,2.0284,13.357616,13.357616,0.0,1.0,-1
1710,BCl3,mp-23184,176,-4.0293755225,1.3986720863057134,-1.4191393472366665,278.2144068484613,4.750299999999998,6.477790259477841,7.655882000000001,0.0,1.0,1
1711,BI3,mp-23189,176,-2.875940575,3.1014613139434752,-0.06308317104166639,419.24854932713475,0.0013999999999999568,7.402429627837673,8.834711,0.0,1.0,-1
1712,HgI2,mp-23192,137,-1.4301351133333335,5.324168651514593,-0.3128999150000002,283.44225777933593,1.8528,4.520633,13.869669,2.0,1.0,-1
1713,TlI,mp-23197,221,-2.572907575,6.979307319030446,-0.6300747775,78.82104329634487,2.2503,4.287598,4.287598,0.0,1.0,-1
1714,InI,mp-23202,63,-2.6045138375,5.133000138027742,-0.4666656649999998,156.39571163708274,1.7440000000000002,4.952369,6.938735012150918,2.0,1.0,-1
1715,FeCl3,mp-23204,148,-4.13467323875,2.7573776826129017,-1.0767842861949999,195.3639361464281,0.027899999999999814,7.268463025587321,7.268463317665572,2.0,1.0,-1
1716,MgI2,mp-23205,164,-2.610585303333333,3.892507476334497,-1.06115021,118.6430765114252,3.6766,4.2094978223090935,7.7312759999999985,2.0,1.0,1
1717,ClO2,mp-23207,61,-3.809680176666667,2.0401714820889305,-0.5612862052533334,439.20366496959997,0.9656,5.674172,10.93848,0.0,1.0,-1
1718,MgCl2,mp-23210,166,-3.621912346666667,2.0551410707305204,-2.2525850121733337,76.9297968503222,5.6735,6.90807935592441,6.908079930991606,2.0,1.0,1
1719,SnBr4,mp-23216,14,-2.801691585,2.994719924131497,-0.6902359820000001,972.1876707620308,2.7107,7.6248770000000015,11.460946986169029,0.0,1.0,-1
1720,AsI3,mp-23218,148,-2.5048502675,4.243515720191168,-0.19706120500000024,356.5909892194753,2.2513,8.611842606090871,8.6118431730705,2.0,1.0,-1
1721,CuBr2,mp-23219,12,-2.765508543333333,4.4577848621327,-0.3078219600000001,83.2000767538018,0.0,4.223778686854935,7.060665716812968,1.0,1.0,-1
1722,TiI3,mp-23223,193,-3.91662381,4.268602662494735,-0.7997413445833335,333.4461275758636,0.0,6.4195910000000005,7.7445082876834075,1.0,1.0,-1
1723,BiTe,mp-23224,164,-3.7137825233333337,7.727114050485022,-0.19711490333333376,433.98213066372887,0.019299999999999432,4.4809495383323625,24.9575,2.0,1.0,-1
1724,BBr3,mp-23225,176,-3.42454134625,2.3783031898137827,-0.5269984985416665,349.83195613037384,3.867,7.000120216905137,8.243618,0.0,1.0,1
1725,CuBr,mp-23227,194,-3.07768415,4.865375073254104,-0.209617545,97.9181771260451,0.43210000000000015,4.132840993828095,6.619653,2.0,1.0,-1
1726,PCl5,mp-23228,85,-3.0166723754166664,1.914661179270316,-1.0695822512285715,722.4016514779934,1.7945,7.5976339999999984,9.751023,0.0,1.0,-1
1727,FeCl2,mp-23229,166,-4.772104686666666,2.9329225116852373,-1.1128697421733336,71.76288715165512,0.6777000000000002,6.9743133793224406,6.974313847741009,2.0,1.0,-1
1728,PCl3,mp-23230,62,-3.44065958,1.5444092437969936,-1.1469498820878572,590.6372740023712,4.0767,6.523152,10.074485000000001,0.0,1.0,1
1729,FeBr3,mp-23232,148,-3.70833240625,4.425671475225835,-0.36313678125000015,221.78959629264043,0.02959999999999985,7.383305544830782,7.383305733398421,2.0,1.0,-1
1730,Ta3I7,mp-23238,64,-5.100216093249999,5.916593574267447,-0.4760739737500003,1606.6825294470327,0.8864000000000001,11.16276819475443,12.922597999999999,2.0,1.0,-1
1731,CoCl2,mp-23240,166,-4.172617163333333,3.294832313104482,-0.9672772471733336,65.43673097288773,0.08620000000000005,6.413034897694304,6.413035234743763,2.0,1.0,-1
1732,ZrBr3,mp-23247,193,-4.76326487,3.5950987852448435,-1.3986448075000006,305.7118534821633,0.0,6.284644999999999,7.494634488380671,1.0,1.0,-1
1733,BCl,mp-23256,19,-4.81323607265625,1.5020028485454266,-0.8466146988695828,1636.7091064111826,0.9011,8.267917,14.588825,0.0,1.0,-1
1734,IF5,mp-23257,15,-3.4331782210000004,3.54638475584,-1.995384340325,1038.995509828669,4.6815,8.560041743348688,18.783093949697854,0.0,1.0,1
1735,TiI3,mp-23264,59,-3.9216503325,4.3596402435706905,-0.8047678670833336,652.9662763196811,0.2019000000000002,6.4770900000000005,13.196221,1.0,1.0,-1
1736,GeI4,mp-23266,205,-2.4080532975,3.5693177787327643,-0.2642376344999999,2159.6079434195667,1.996,12.925825999999999,12.925825999999999,0.0,1.0,-1
1737,BeCl2,mp-23267,72,-3.906950795,1.6583287032878606,-1.8245791888400005,160.04940767115568,6.342700000000002,6.585859993504339,6.585859993504339,1.0,1.0,1
1738,WCl3,mp-23269,148,-5.404802386666668,4.376432973357969,-1.2248825366116662,660.6569041799023,0.0,9.635837696195651,9.635837706891602,0.0,1.0,-1
1739,TeI,mp-23273,2,-2.39814969375,4.744108426368167,-0.06449292125000028,712.6559126859729,0.8736000000000002,8.41461,10.180743539236564,1.0,1.0,-1
1740,TiCl3,mp-23275,148,-4.9431133825,2.510175119475106,-2.028852145778333,204.0481527352589,0.0,7.224460655653265,7.224461100602592,2.0,1.0,-1
1741,AsCl3,mp-23280,19,-3.268222243125,2.0685869488722526,-1.1630544093200001,582.0853089705496,4.1006,4.652758,12.232531,0.0,1.0,1
1742,SbI3,mp-23281,148,-2.53445412625,4.293227467180736,-0.3591943550000001,388.6943953522384,2.2114,8.825923668139954,8.825923750135676,2.0,1.0,-1
1743,ZrI3,mp-23282,193,-4.24193658375,4.273364228009672,-0.9620019650000008,366.7698162297846,0.060900000000000176,6.604067999999999,8.008030507258885,1.0,1.0,-1
1744,AlBr3,mp-23288,14,-3.281621175625,2.650775665089814,-1.1175323131250003,668.2648335540538,4.0992,7.582053,11.256773146109724,0.0,1.0,1
1745,PtCl2,mp-23290,166,-3.6280955944444435,5.133821904438362,-0.7685590399511111,516.2081519926676,1.8306,8.620613353886425,8.620613396164918,0.0,1.0,-1
1746,HgBr2,mp-23292,36,-1.6672889183333333,5.199394404680032,-0.47477777,230.20179349573127,2.8404,4.308542546602621,13.087909,0.0,1.0,-1
1747,RuBr3,mp-23294,59,-3.867924143125,4.308730257941109,-0.32163182437500026,525.3351129615461,0.0,5.92598,12.413003999999999,1.0,1.0,-1
1748,BrF3,mp-23297,36,-2.73877277625,3.2159328199565884,-1.2641285408924998,141.37514584681557,2.3409999999999997,4.8702982587344685,6.228833,1.0,1.0,-1
1749,NbCl5,mp-23307,12,-4.455248730277777,2.2493204672813865,-1.7268220763277773,1196.7084397968385,2.2207,6.4134654275293315,13.677699177056425,0.0,1.0,-1
1750,ScCl3,mp-23309,148,-5.08760208125,2.136561367793392,-2.564096572445,235.20440509943612,3.8786,7.45305550444816,7.453055756028798,2.0,1.0,1
1751,MoBr3,mp-23312,59,-4.39115328875,3.943335577283174,-0.4520476262500002,565.3723837182813,0.0,6.119478,12.680266,1.0,1.0,-1
1752,InBi,mp-23313,129,-3.3220237425,8.67909441379237,-0.0011647224999999928,123.90230299790731,0.0,4.984821,4.985571,2.0,1.0,-1
1753,IO3,mp-23315,2,-4.186065240625,4.8561686091671605,-0.6208129853125,239.22786852119404,1.9146,5.333289,6.905297656957664,2.0,1.0,-1
1754,AsBr3,mp-23317,19,-2.85505392125,3.0240813603703707,-0.462579415,691.0678942857674,3.2023,4.687197,13.162131,0.0,1.0,1
1755,BiSCl,mp-23318,62,-3.9327221583333336,5.40046084811904,-1.0604304404616671,340.07201086352393,1.9702000000000008,4.02616,10.493094000000001,1.0,1.0,-1
1756,BiSBr,mp-23324,62,-3.762380565,5.8213552703682065,-0.7623969927083342,366.2027087160548,2.0352,4.0886629999999995,10.577375,1.0,1.0,-1
1757,Hg3Cl4O,mp-23333,198,-2.1849883325,5.815850396381856,-0.9134745236612504,867.5013991057318,1.4906,9.537255,9.537255,0.0,1.0,-1
1758,Bi2TeO5,mp-23334,39,-5.6732615484375,7.527408813058576,-1.65429943671875,551.9897702456648,2.5328000000000004,8.855401880143047,11.718463,2.0,1.0,-1
1759,Ti3(BiO3)4,mp-23335,139,-7.24285512263158,7.945260423456067,-2.4957709692105268,244.8437162714585,1.4192999999999998,16.841035515614205,16.841035515614205,2.0,1.0,-1
1760,PAuCl4,mp-23355,14,-3.27518644375,3.2238818380101115,-0.9914245590185716,761.7998691551159,2.6329,6.530183,15.201820999999999,0.0,1.0,-1
1761,PNCl2,mp-23375,62,-4.929639192708334,1.7384170631997975,-0.9612741920761904,1328.339452123335,4.1175,6.553794,14.740032000000001,0.0,1.0,1
1762,GaSeBr7,mp-23376,7,-2.4813127733333333,3.3357875394945373,-0.4832580222048613,704.888972191964,2.1839,6.773282000000001,15.312787234240801,0.0,1.0,-1
1763,Sn2SI2,mp-23386,62,-3.521857207,4.805949829052046,-0.6138254456250001,2169.6856478165105,1.6167000000000002,4.429926,26.536764,1.0,1.0,-1
1764,MoNCl3,mp-23396,2,-5.600599402,2.58251343189597,-1.0886657724320004,556.332541379368,1.6837,8.068273,9.460528993471348,1.0,1.0,-1
1765,MoPCl9,mp-23397,2,-3.679916795454545,2.3121635292802627,-1.1759542789010389,640.5992260194799,0.0,7.2335600000000015,9.836936781647221,0.0,1.0,-1
1766,BClF6,mp-23398,14,-4.2103923471875,2.2044819657600776,-2.153324403383333,482.850352708859,3.3486,5.886799,10.09448360999992,0.0,1.0,1
1767,SbIF5,mp-23403,14,-4.121314111071428,3.853588191673423,-2.2990620362071432,2369.3451074051322,0.5522,8.560844,17.058656213020118,0.0,1.0,-1
1768,TlBrO4,mp-23404,62,-3.9980414420833337,4.974698536701701,-0.5011678762499999,465.02571240453307,3.0301,6.271966,9.392517999999999,0.0,1.0,1
1769,Nb3Se12I,mp-23410,128,-5.17069825890625,4.817153850760336,-0.5595191672265623,1865.7887181830386,0.07420000000000028,9.801426,19.421552,1.0,1.0,-1
1770,SbCl4F,mp-23412,82,-3.223204652083333,2.501005379454184,-1.462378771955,750.4489153572557,1.3854,10.374454615950516,10.374454615950516,0.0,1.0,-1
1771,InSn2I5,mp-23417,140,-2.76268619875,5.259986548837599,-0.4638248843750001,623.0259698702051,1.4497,10.0528150813592,10.0528150813592,2.0,1.0,-1
1772,Sb4Cl2O5,mp-23419,14,-5.353709433636364,4.6172822636187565,-1.6944335920700004,458.8540241998388,2.6466,5.226808,13.822305389429436,2.0,1.0,-1
1773,Al2CuCl8,mp-23434,14,-3.638924765,1.9915942714605617,-1.6733642064618182,668.9084771343337,0.5594,6.95171,12.664794812947626,0.0,1.0,-1
1774,Bi2TeI,mp-23435,166,-3.35059882375,6.8468865327036825,-0.23875328249999986,326.17886872612576,0.19440000000000035,19.303469790553844,19.30346997978408,2.0,1.0,-1
1775,Y6C2I7,mp-23440,12,-5.618449029333333,5.107490830237142,-1.090417270333333,470.0521620313526,0.0,11.122602619017274,12.927185321221707,2.0,1.0,-1
1776,MnTlI3,mp-23443,62,-3.7469615445,5.8447859373022055,-0.5278820854310347,727.3509935591043,0.0017999999999998015,4.322928,16.431020999999998,1.0,1.0,-1
1777,AsCl2F3,mp-23444,85,-3.799859125416667,2.6182639498270763,-1.8951139987650003,514.5320798701249,2.8871,6.4301080000000015,8.945345,0.0,1.0,-1
1778,PBr2N,mp-23457,62,-4.576880599166667,2.6656940403883858,-0.4169778169045237,1530.8249321383496,3.0519,7.016462,15.246231,0.0,1.0,1
1779,Re(AgCl3)2,mp-23472,148,-3.781856398888889,4.314390775990357,-0.9337736153214816,236.57320822932567,0.8394999999999999,7.166887301510051,7.166887903557582,2.0,1.0,-1
1780,Zr2Au,mp-2348,139,-7.20591333,9.78663226881268,-0.41615239666666665,64.3768660103275,0.0,6.326919805911404,6.326919805911404,2.0,1.0,-1
1781,NbSeBr3,mp-23498,13,-4.5481323235,4.019493291402087,-0.8465330959687499,680.1274980802773,0.7718,7.148426,12.810898229575939,1.0,1.0,-1
1782,Sr2InI5,mp-23504,140,-3.07170478625,4.720867001867265,-1.3528661222916667,650.4321306990588,3.0675,10.062035836598527,10.062035836598527,2.0,1.0,1
1783,InSn2Br5,mp-23507,140,-3.117511980625,4.728202031748942,-0.7480794631249998,528.0330744104576,2.3079,9.517207227506502,9.517207227506502,2.0,1.0,-1
1784,BiSI,mp-23514,62,-3.5850846741666667,5.9027413285534545,-0.6227390768750004,414.0416119742951,1.8826,4.2081,11.071342,1.0,1.0,-1
1785,InPb2I5,mp-23520,140,-2.7861973675,6.114256117018559,-0.5615672493749999,632.108396367293,1.8626000000000005,10.060666127055553,10.060666127055553,2.0,1.0,-1
1786,MoCl3O,mp-23528,14,-4.5280290745,2.6122073837017106,-1.4636567887060004,555.075410379694,2.4827,6.222478,14.274816,1.0,1.0,-1
1787,SbI3Cl8,mp-23536,2,-2.375216355,2.77523712915031,-0.8142291134233336,470.3545674519471,1.2358,7.577203,8.125213823107918,1.0,1.0,-1
1788,Bi3B5O12,mp-23549,62,-7.245303949625,5.9233823291604075,-2.4445515791666663,978.9220135770244,3.2839,6.646164,18.671838,2.0,1.0,1
1789,In(IO3)3,mp-23559,148,-4.548020459230768,5.032243907188583,-1.0453503981730763,422.06138784124136,3.1911,7.576574315915736,7.576574616013229,2.0,1.0,1
1790,SiCl2O,mp-23563,2,-5.325388121666667,1.6915074105659471,-2.2807177611091665,677.3137873144996,5.5652,6.793984,11.804384884067195,0.0,1.0,1
1791,AsSe6IF6,mp-23569,13,-3.848443546785714,3.794681864162699,-1.2997363547287502,691.0316349667293,1.5792,7.167808,11.95419588975624,1.0,1.0,-1
1792,SbPCl8O,mp-23574,62,-3.5294180611363632,2.1650105050786497,-1.3640762080364934,1387.8117224747918,1.8686,8.553649,17.355109,0.0,1.0,-1
1793,AsSe3(ClF2)3,mp-23575,14,-3.7278211965384616,2.8692720140641983,-1.617689921842404,1231.890949873302,1.9584,8.117131,12.627654200142837,0.0,1.0,-1
1794,SIO3F,mp-23598,19,-4.813516620416666,3.0597216088462065,-1.6210917834274998,981.0709345319541,1.9303,5.7204489999999995,13.712734,0.0,1.0,-1
1795,TaBi4ClO8,mp-23602,60,-6.608116310357143,8.627864882213949,-2.134038482018572,908.6668117295512,1.3359000000000003,5.5243660000000006,29.425674,2.0,1.0,-1
1796,BaTa2Bi2O9,mp-23611,139,-7.9097958407142865,8.856651032724633,-2.793682702946428,198.96095993754082,1.9121,12.939761452833896,12.939761452833896,2.0,1.0,-1
1797,NbBi4ClO8,mp-23630,60,-6.402146957678572,7.919664637622149,-2.053531457197144,916.0828653225348,1.3611,5.555211,29.311978000000003,2.0,1.0,-1
1798,TlRe6Se8Cl3,mp-23635,2,-6.702972598333334,7.618437955345223,-0.6608803293627774,897.8620169326723,1.4338000000000002,9.207167,11.228488441810903,2.0,1.0,-1
1799,Tl(BH)6,mp-23691,202,-5.05326885,2.8632367398873457,-0.2935439597476921,319.3178666765937,4.6348,7.672073220534981,7.672073220534981,0.0,1.0,1
1800,Mg(AlH4)2,mp-23709,164,-3.3122676190909086,1.0004949814333963,-0.12960170990545414,143.28606589029502,4.4283,5.232728537720259,6.042504,2.0,1.0,1
1801,SiH4,mp-23739,14,-3.7867751745,0.7373883725024172,-0.10992304139599936,289.30190347949747,6.5933,5.059625,7.693490565979787,0.0,1.0,1
1802,H2,mp-23907,194,-1.11741023,0.03997628985771613,4.440892098500626e-16,83.73582204581426,7.4955,3.9003982140208455,6.355691,0.0,1.0,1
1803,K(BH)3,mp-23950,225,-4.7745357285714265,1.4049737308123693,-0.3648522651942849,176.23345783620834,5.135,6.293145700756657,6.293145700756657,0.0,1.0,1
1804,ScHCl,mp-24081,166,-5.217768138333333,2.74214255411043,-1.6090825572933325,98.60600662276569,0.0,9.460800725579046,9.460800808973412,2.0,1.0,-1
1805,Ta2H,mp-24082,21,-9.184565156666666,15.325071106475498,-0.1994678495400007,39.322216978755506,0.0,2.9370014872045944,4.802637,2.0,1.0,-1
1806,SO3,mp-2414,33,-5.807287344166667,1.97276934644584,-1.7547907758854169,808.6991313193075,5.1448,5.508292,12.921339999999999,0.0,1.0,1
1807,PdSe2,mp-2418,61,-4.3390517075,5.936576683260865,-0.28181678572916624,295.7575857498652,0.008500000000000174,5.794418,8.585061,2.0,1.0,-1
1808,CaHI,mp-24204,129,-3.422202205,3.6490456594429537,-1.1657524862066666,152.8918323602096,3.7585,4.028581,9.420633,2.0,1.0,1
1809,SrHI,mp-24205,129,-3.3766226333333336,4.157115097856535,-1.2255457900955555,172.18671049449006,3.7366,4.2813370000000015,9.393789,2.0,1.0,1
1810,PH4I,mp-24409,129,-3.5043379983333334,2.7952309540670037,-0.1882971446752381,192.368982318052,3.9619,4.667346,6.419963,0.0,1.0,1
1811,CaHBr,mp-24422,129,-3.68048856,3.252075278723843,-1.3864008662066665,123.55711649727192,4.1669,3.849445,8.338185000000001,2.0,1.0,1
1812,P4Se5,mp-2447,33,-4.398458626388889,3.0996719764606344,-0.05038075594494037,1111.4897284575952,1.8262,6.939585000000001,13.557934,0.0,1.0,-1
1813,H2,mp-24504,194,-3.392726045,0.12045537461066755,4.440892098500626e-16,55.57987768328533,9.3913,3.7619542322087054,4.5348190000000015,0.0,1.0,1
1814,N2,mp-25,205,-8.336493965,0.926593573513627,8.881784197001252e-16,200.81013474720945,7.456399999999999,5.8559209999999995,5.8559209999999995,0.0,1.0,1
1815,GaS,mp-2507,194,-4.23401483375,3.4058068602325102,-0.9834721490625,198.51149222189514,2.0109000000000004,3.6269178913631337,17.425272,2.0,1.0,-1
1816,VCuO4,mp-25196,74,-6.399182306666668,4.180835992612958,-1.6518865375000011,141.78096528047433,0.2008000000000001,5.820000241550252,5.820000241550252,2.0,1.0,-1
1817,MnO2,mp-25223,164,-7.12472493,4.130026167158968,-1.8006625110383918,34.95426459943111,1.4892,2.9311080093220716,4.697923,2.0,1.0,-1
1818,V2O5,mp-25233,63,-7.430893384285714,2.678376182460305,-2.2834448866071426,225.5238434473975,2.4669,5.709628071530843,11.535495,2.0,1.0,-1
1819,CoO2,mp-25234,166,-5.736742343333333,4.52235457794567,-1.1615260991666656,66.77766083966264,0.0,2.8198280083709,5.061920398911957,2.0,1.0,-1
1820,FeMoClO4,mp-25247,11,-6.336625075714286,3.2391893270541554,-1.8668881097514287,257.58699884337824,1.5821999999999998,5.6021881352989205,6.7839350000000005,2.0,1.0,-1
1821,V2O5,mp-25279,59,-7.4422528407142865,3.012184513429082,-2.2948043430357146,200.53143762391144,2.3444000000000003,3.6186580000000004,11.551508,2.0,1.0,-1
1822,V2O5,mp-25280,62,-7.433293684642857,2.9776746755080485,-2.285845186964285,405.71100384789736,2.3688,3.6166769999999997,11.578192,2.0,1.0,-1
1823,Mn2NiO6,mp-25285,64,-6.276260201666667,4.0366446982776365,-1.3816110759700382,217.66691342552346,1.0134,5.011280751247528,10.013213,2.0,1.0,-1
1824,V2O5,mp-25288,62,-7.429310595714285,3.173788638781332,-2.2818620980357136,380.64140975585184,2.4196,3.619298,10.333931,2.0,1.0,-1
1825,MnO2,mp-25424,166,-7.130717126666667,3.086803620689608,-1.8066547077050583,46.767480276959645,1.95,6.515959152137543,6.515959687315215,2.0,1.0,-1
1826,AlCl3,mp-25469,12,-3.82810826375,2.215248954324524,-1.9513260736950002,199.9027450838365,5.311,6.024170248988984,6.653236117323433,2.0,1.0,1
1827,NiTe2,mp-2578,164,-4.2460386733333335,7.5501321619213915,-0.22379249333333345,69.03617609195001,0.0,3.8994538052405487,5.242501,2.0,1.0,-1
1828,Ti3O,mp-2591,163,-8.55677322625,4.839896564388118,-1.5737378465624996,219.0317050947076,0.0,5.157727589668244,9.507351,2.0,1.0,-1
1829,V(PO3)5,mp-26152,11,-7.094370166428571,2.3864488228907157,-2.4204026707908164,620.3950272017687,0.0,5.185423,13.797672,2.0,1.0,-1
1830,NbS2,mp-2648,42,-7.13180166,2.3263117595719005,-1.4493734020833329,112.09376507447573,0.0,3.356787655270437,11.851874011772528,2.0,1.0,-1
1831,P4S7,mp-2650,14,-4.779307948181818,1.6967919896185686,-0.6007559014691553,1363.629406774882,2.7761,7.5033119999999975,18.731907,0.0,1.0,-1
1832,Zr2Pd,mp-266,139,-7.91312693,7.845685271874635,-0.4880325733333327,61.138904055986394,0.0,5.9190930935584225,5.9190930935584225,2.0,1.0,-1
1833,LiSb(PO3)5,mp-26652,14,-6.841679422045454,2.5603393642862518,-2.442164174542748,1358.246786926391,0.11150000000000004,9.672261,14.065381,2.0,1.0,-1
1834,Ca2N,mp-2686,166,-4.871482313333334,2.161682877827904,-0.8835916641266669,72.33292337664713,0.0,6.742414525731936,6.742414843324907,2.0,1.0,-1
1835,SnF4,mp-2706,139,-4.670952432,4.468959589894858,-2.7325979539520002,72.3463591377353,3.2016,5.113698230837931,5.113698230837931,2.0,1.0,1
1836,Te4O9,mp-27127,148,-5.36933931,5.46063501036603,-1.462862930096153,397.9931990361105,2.3744,7.488495987761293,7.488496153136356,2.0,1.0,-1
1837,TlPO3,mp-27144,114,-6.371676077,5.445596044619262,-2.2692890274642847,691.2337652993514,3.4619000000000004,7.793823,11.379518,2.0,1.0,1
1838,WCl5,mp-27160,12,-4.5207443072222215,3.1584133612246625,-1.3161807482722223,1139.1079464255224,0.0,6.600883972678963,13.171682333034608,0.0,1.0,-1
1839,Sn2IF3,mp-27167,20,-4.366338679166667,4.846051244260439,-2.065537558095,288.73726349130453,2.4336,7.397686021119915,9.353534,2.0,1.0,-1
1840,HgPS3,mp-27178,2,-3.810953571,4.241494369862279,-0.5837664055892866,256.63418656812854,1.9798,6.377665,7.782195858906276,2.0,1.0,-1
1841,Be2TlF5,mp-27187,15,-5.336442513125,4.2666207536218606,-3.2185388407437503,247.059487496718,4.8968,4.723362587857512,12.805198537726232,2.0,1.0,1
1842,Si3Cl8,mp-27189,219,-3.944844516818182,1.597880494897578,-1.5533218010072731,1529.2256061477185,4.7516,12.931895497672489,12.931895497672489,0.0,1.0,1