,pretty_formula,task_id,spacegroup.number,final_energy_per_atom,density,formation_energy_per_atom,volume,band_gap,min_abc,max_abc,Dimension,Dim,is_uv
3168,Hg4AsI5,mp-567798,64,-1.5875630790000002,6.3051228358196925,-0.2381727850000001,1592.6157731636508,0.9168,8.803469807041312,20.550561,0.0,1.0,-1
3169,AgI,mp-567809,129,-2.43451454,5.548019601964064,-0.2562302308333333,140.5363420731169,2.2061,4.589103,6.673183,2.0,1.0,-1
3170,HfGeTe4,mp-567817,36,-4.9806343825,6.835810533807202,-0.4550643116666666,369.9781640037957,0.3871000000000002,8.527050246305109,11.108767,2.0,1.0,-1
3171,TlBi(PSe3)2,mp-567864,14,-4.04675497825,5.518028554204875,-0.24138219037053546,1142.4151426233204,1.4116999999999995,7.679053,12.851886385602464,2.0,1.0,-1
3172,AlTlBr4,mp-567878,13,-3.2197563016666666,3.9868652761111902,-1.1106004733333332,917.9394276756219,4.1035,7.633555,13.379012107439694,0.0,1.0,1
3173,TeI4,mp-567914,141,-1.96288918725,4.307955397028141,-0.11501890924999998,1958.8022777960816,1.813,14.012080048041975,14.012080048041975,0.0,1.0,-1
3174,B4Rh5,mp-567926,194,-7.416607443333333,9.320035453049957,-0.35670672851851826,198.75490187818656,0.0,3.3358998748727458,20.623444,2.0,1.0,-1
3175,InSiTe3,mp-567931,162,-3.731554313,5.226637833979407,-0.21017420500000056,334.0392913865677,0.5640000000000001,7.171085438189466,7.500619,2.0,1.0,-1
3176,Hg3AsSe4Br,mp-567949,186,-2.6005718866666667,6.404485316487483,-0.2460461143750001,556.116884405411,1.3128,7.876904894455942,10.349617,2.0,1.0,-1
3177,GaSe2NCl6,mp-567956,14,-3.39346383025,2.4889022135304035,-0.8439141796627496,1212.5752668779526,1.6369999999999998,10.196152,11.814378,0.0,1.0,-1
3178,AlPNCl5,mp-567975,2,-4.368705166875,1.7546515479421394,-1.446131571531429,471.71892497197797,3.8552,7.4083039999999984,8.802842355229872,0.0,1.0,1
3179,ICl,mp-567998,14,-1.843811709375,2.9964977947509865,-0.4548799135049999,719.7760590022173,1.8619,5.3907120000000015,12.524187708013999,0.0,1.0,-1
3180,HfI3,mp-568002,193,-4.51183190875,5.40057150534391,-0.879525235,343.88179382944946,0.0,6.492496,7.8204805631000065,1.0,1.0,-1
3181,ICl,mp-568024,14,-1.83472912,3.063118790771765,-0.44579732413,704.1213615392578,1.5271,8.485485,9.344245888014932,0.0,1.0,-1
3182,Y5Mg13Cu5,mp-568046,63,-3.36858722652174,3.542856508715857,-0.16719463666666642,1010.7287637959944,0.0,9.747535755857475,25.547926999999998,2.0,1.0,-1
3183,ReNCl4,mp-568100,79,-5.10666515,3.571019159971616,-0.8712646034033332,159.04340223022663,1.1041999999999998,6.55375976080204,6.55375976080204,1.0,1.0,-1
3184,AlGe2P(H3C)8,mp-568107,2,-4.978659638888889,1.3093864494517402,-0.25719178126253994,820.5421998128386,3.8443,9.433131,10.045506043027848,0.0,1.0,1
3185,InBr2,mp-568108,52,-2.807408067083333,3.9196710646888167,-0.7988957970833331,930.7458593907204,2.4203,8.06913,10.7792,0.0,1.0,-1
3186,Pd(Se3Br)2,mp-568146,2,-3.4092720577777778,4.431126794174856,-0.13936052934027762,277.3062112396669,1.1012,4.845219,8.19998800061494,1.0,1.0,-1
3187,TiCl3,mp-568230,149,-4.913220356666667,2.4974387875818342,-1.998959119945,615.266246425413,0.02909999999999968,6.1057530705309375,19.056974,2.0,1.0,-1
3188,CdI2,mp-568233,166,-1.9020135466666668,5.061527710378949,-0.5783752166666668,240.2920826022224,2.3865000000000003,14.981793951875387,14.981794181382046,2.0,1.0,-1
3189,TlSn2Br5,mp-568244,140,-3.129219033125,5.25251091639508,-0.8085403593750002,531.9551846832371,2.3783000000000003,9.544540820808301,9.544540820808301,2.0,1.0,-1
3190,NbBr5,mp-568245,2,-3.9172137916666654,3.7150390767243184,-0.8695575016666665,440.20707428757714,1.5990000000000002,6.964438021369518,10.119512181252098,0.0,1.0,-1
3191,SiSe2,mp-568264,72,-4.590022188333333,2.8885335892352537,-0.4509765298958334,213.8589632494045,2.1817,7.0382467962688695,7.0382467962688695,1.0,1.0,-1
3192,C,mp-568286,67,-9.2204766625,1.8843504024722024,0.006304037500001414,42.336577190837694,0.0411999999999999,2.467763697440458,8.028328,2.0,1.0,-1
3193,CdI2,mp-568289,166,-1.9016335488888887,5.0952403392195285,-0.577995218888889,358.053287098362,2.378,22.17028590690702,22.17028635713227,2.0,1.0,-1
3194,BiBr3,mp-568301,12,-2.96984255125,4.438965233712183,-0.7696390687500001,335.6959200437042,2.9512,7.374485028662679,7.528917772578274,2.0,1.0,-1
3195,HfBrN,mp-568346,59,-8.351405505,6.7678952570304025,-1.8358763124600008,133.6699186203598,2.1298000000000004,3.5820260000000004,9.053208999999999,2.0,1.0,-1
3196,P,mp-568348,13,-5.408668775833332,2.1490901450835844,0.004617085595237806,2010.3316394110086,1.7644000000000002,9.260506,24.11237675762508,2.0,1.0,-1
3197,C,mp-568363,67,-9.22041158,1.8556039302537173,0.00636912000000045,42.99244303602145,0.06050000000000023,2.4687096661474794,8.149903,2.0,1.0,-1
3198,BiI,mp-568388,12,-3.0014338875,6.1036046117317,-0.2944104250000001,365.5216771039295,0.8340999999999998,8.114620436225284,11.039652792436726,1.0,1.0,-1
3199,MoCl3,mp-568394,15,-4.878935090625,3.2634824220629266,-1.22713610057,411.7385653595974,0.5585,5.9133803798084905,13.103690848217154,2.0,1.0,-1
3200,AlPI8,mp-568423,33,-2.47591623425,3.4400323614548776,-0.3408199731071431,2072.161531990359,1.4267999999999998,11.19623,16.230963,0.0,1.0,-1
3201,Al2VCl8,mp-568443,15,-4.200938133636364,1.9495527523937841,-1.7822230841890914,661.8614245128144,0.8491,9.768869435459257,11.698105006586365,1.0,1.0,-1
3202,NbCl5,mp-568483,14,-4.454227640833333,2.3039388372346203,-1.725800986883333,778.8924322413303,2.2959,8.446810000000001,11.968129027696602,0.0,1.0,-1
3203,BPBr2NCl3,mp-568514,64,-4.2942125046875,2.3632392768316093,-0.9091430259247616,904.901351656988,2.9132,9.305259157415714,10.491923,0.0,1.0,-1
3204,In5Br7,mp-568546,15,-2.8345232591666663,4.317624316157118,-0.7331145566666665,3487.260085588512,2.0779,13.464009668202598,19.86303559816178,0.0,1.0,-1
3205,WSe6ICl6,mp-568572,2,-3.728519597142857,3.7049656564492817,-0.6584686106158932,446.94796742416565,0.0,6.9049580000000015,8.426191542324979,1.0,1.0,-1
3206,N2,mp-568584,167,-8.32054614875,1.1263057259925042,8.881784197001252e-16,330.40652472791936,7.0247,6.93068277999686,6.930682866964049,0.0,1.0,1
3207,ZrNCl,mp-568592,166,-8.00962597,4.198985265079451,-2.0916180385466654,111.27011177040369,1.7555999999999998,9.892713377798074,9.892714283751756,2.0,1.0,-1
3208,In5Se5Cl,mp-568603,11,-3.5636944495454546,5.437037346822732,-0.6098919936344319,613.477775259659,0.9511999999999996,4.177033,15.656103204431586,2.0,1.0,-1
3209,Nb2Br5,mp-568616,63,-4.887409597142857,3.943202497713808,-0.8320891999999996,492.9840227603476,0.0,6.059831,9.332627471114444,1.0,1.0,-1
3210,CsHg5Cl11,mp-568628,12,-2.1167180147058824,4.5437686192690725,-1.1634141946347667,557.6239837467778,2.7167,6.94094539987868,9.718049070098996,1.0,1.0,-1
3211,CdBr2,mp-568690,166,-2.2804067233333334,4.5811787353954125,-0.8814924433333333,98.67117400992856,2.9358,7.246401859002439,7.246401959743401,2.0,1.0,-1
3212,In4Br7,mp-568692,166,-2.803592486818182,4.027320946540157,-0.7612996959090911,839.9753164404992,2.2648,16.50297491627582,16.502975808939787,2.0,1.0,-1
3213,CdBr2,mp-568722,166,-2.2793902000000004,4.644457120818816,-0.88047592,194.65365807536725,2.8560000000000003,13.772497269578563,13.772497290929993,2.0,1.0,-1
3214,Mo(SeCl6)2,mp-568726,43,-3.152896978333333,2.489920123614146,-0.9606517979205,906.0511902267875,0.0,9.003146575899171,12.945101420842905,0.0,1.0,-1
3215,Ge4Te7As2,mp-568730,166,-3.8860166792307687,6.097706775351244,-0.05421246846153812,363.1693511230232,0.39529999999999976,23.98712125686449,23.98712164424437,2.0,1.0,-1
3216,HgI2,mp-568742,137,-1.4291586258333335,5.4429752891937575,-0.3119234275000002,1109.0216678950192,1.3792,9.149441,13.248018,2.0,1.0,-1
3217,Bi2Pd,mp-568746,12,-4.559667638333333,11.096921577831473,-0.2396841616666669,156.93628148449466,0.0,5.728344250428827,6.823327885930296,2.0,1.0,-1
3218,TcBr3,mp-568753,59,-4.205564408125,4.231081253122884,-0.3877145256250003,530.1566533100395,0.08399999999999996,6.0567410000000015,12.3059,1.0,1.0,-1
3219,BiBr,mp-568758,12,-3.239438765625,6.0480046275850805,-0.4759583406250001,634.528392711026,0.7863999999999998,7.621999440681429,21.49375260044716,1.0,1.0,-1
3220,CuTeBr,mp-568778,70,-3.253326610833333,5.240968494298675,-0.29351523083333336,687.0319705093498,0.8077000000000001,11.733845346133425,16.308600913335024,2.0,1.0,-1
3221,C,mp-568806,191,-9.21672921,1.9756430064485893,0.010051490000000385,20.190121901693487,0.0,2.4671920450214246,3.830032,2.0,1.0,-1
3222,Bi20(PtBr12)3,mp-568819,12,-3.2785941616949152,5.44694570666429,-0.6524456062711863,2329.5348529266244,1.2075,11.588882400083154,18.741911723650922,0.0,1.0,-1
3223,TaBr5,mp-568846,62,-4.2832149570833336,4.162935338037316,-0.9428132354166668,1852.3268095745573,2.0283,6.7198910000000005,19.581963000000002,0.0,1.0,-1
3224,GaCl2,mp-568848,52,-3.2624653854166668,2.6453996493773984,-1.4171995667566673,706.191817790105,4.0288,7.202955,9.918307,0.0,1.0,1
3225,InSi2As(H3C)8,mp-568872,2,-4.994447935972222,1.4484302598973469,-0.2769658346355549,839.6226418174573,3.4387,9.545532000000001,10.097033212491528,0.0,1.0,1
3226,GaSi2As(H3C)8,mp-568873,2,-5.018985465277779,1.313932016485541,-0.2938252591494448,811.5875170916327,3.7194,9.387888,10.02629737822318,0.0,1.0,1
3227,Tl2CdGeTe4,mp-568890,121,-3.12268101625,6.87323871817192,-0.267377604375,266.7732837475162,0.4309999999999996,7.073417118709245,7.073417118709245,1.0,1.0,-1
3228,TlBr,mp-568949,63,-2.8609313225,6.582511850548662,-0.8616415625,143.4316195720594,2.4061000000000003,5.062307,6.717074290160114,2.0,1.0,-1
3229,MoCl4,mp-569005,162,-4.3983340323333335,2.677096666306539,-1.2261246449413334,884.8312930895354,0.0,6.388172,12.646682965113106,0.0,1.0,-1
3230,PdCl2,mp-569008,58,-3.409668858333333,3.3717486048985696,-0.8471409371733332,174.66115361988534,1.3653,3.410757,11.579049000000001,1.0,1.0,-1
3231,PdI2,mp-569017,58,-2.977297821666667,4.80363486547821,-0.2346621416666667,249.05066456601227,0.9689,3.9003400000000004,9.008436,1.0,1.0,-1
3232,Nb10Se40I3,mp-569026,124,-5.193280656792453,4.788311164093919,-0.5626854237500002,3099.039540009001,0.0,9.787103,32.353316,1.0,1.0,-1
3233,Y3H2,mp-569037,194,-5.639704828999999,4.3112947284535705,-0.4639274964480002,207.010834156764,0.0,3.7027467796296833,17.4347,2.0,1.0,-1
3234,Bi2Te5Pb2,mp-569044,164,-3.6911473888888886,7.499267233033942,-0.2553843433333335,325.5773496965312,0.1576000000000004,4.51931919647473,18.406765,2.0,1.0,-1
3235,HfI4,mp-569059,15,-4.124057389,4.81529757861006,-0.9134095270000004,946.4079177187364,2.3138,8.864813560124375,13.293772546351356,1.0,1.0,-1
3236,InSi2P(H3C)8,mp-569070,2,-5.020838720555556,1.3059041047988085,-0.2824075232069837,819.4940452270157,3.7166,9.477546,9.981402701329909,0.0,1.0,1
3237,P4Se3,mp-569094,62,-4.644890738303571,2.5335547575040094,-0.05333675563456605,3783.3391818138643,2.1677,10.448516999999999,28.446544,0.0,1.0,-1
3238,AgBi(PSe3)2,mp-569126,148,-4.036609748,4.996191648875751,-0.18414665778720266,566.7127483749093,1.3564999999999996,14.861635384210784,14.861635414442716,2.0,1.0,-1
3239,SnCl2,mp-569152,62,-3.5617782483333333,3.5754026591343084,-1.3893536455066668,352.25657714162116,3.1079000000000003,4.353743,10.055936,1.0,1.0,1
3240,BiI3,mp-569157,162,-2.59701997,4.658917194956159,-0.48150193125,420.3593100548389,2.548,7.829226339508266,7.918672,2.0,1.0,-1
3241,ZrCl4,mp-569175,13,-4.964882231,2.457165527467285,-2.252261323608,314.96891650035536,3.6229,6.3796940000000015,7.760452000000001,1.0,1.0,1
3242,SbAsPCl13,mp-569209,36,-3.08205546,2.1442577005254466,-1.1757136972469642,1066.4341435341428,2.1274,9.840591427982416,12.179556,0.0,1.0,-1
3243,SbI3,mp-569224,14,-2.48806794375,4.300067422733588,-0.31280817250000004,776.1522275874446,2.2167000000000003,7.912282,11.715895,0.0,1.0,-1
3244,Ga(BiCl)4,mp-569237,173,-3.5365700235185185,5.335332121115246,-0.9139437291340744,3912.054729603826,1.4227,13.493756,18.296613543398486,0.0,1.0,-1
3245,Ta4Se9I8,mp-569258,33,-4.874360872142857,5.097494951323603,-0.5369125512425593,3191.974299105905,0.8829,13.666023000000001,15.524331,0.0,1.0,-1
3246,TlPAuSe3,mp-569287,12,-3.794709328333333,6.6214005253546775,-0.2052835259337797,335.650673458255,1.0560999999999998,7.240418491953624,8.442513830492432,1.0,1.0,-1
3247,Hg,mp-569289,139,-0.2961163,10.7862062769837,0.0075640650000000096,30.8808790427138,0.0,3.437354896517669,3.437354896517669,0.0,1.0,-1
3248,C,mp-569304,166,-9.226780699999999,1.2743710183702888,0.0,62.60103621225793,2.6904,11.939781671497895,11.939781885576847,2.0,1.0,-1
3249,TlGaBr4,mp-569348,14,-2.901788643125,4.30334683422461,-0.912212869375,1832.8043020297198,3.5506,11.616549000000001,13.10693111417974,0.0,1.0,1
3250,Hg,mp-569360,12,-0.30240571666666666,10.607125317516964,0.0012746483333333507,94.2067303058696,0.2281,3.567736651899773,8.809935710406121,0.0,1.0,-1
3251,P3NCl12,mp-569386,14,-3.51105864609375,1.8627953527839656,-1.0586498027946427,3796.4930289641634,1.905,12.172178,21.761794000000002,0.0,1.0,-1
3252,ZrCl3,mp-569391,162,-5.17981707625,2.9220138936057944,-2.102503686195,224.56723502512585,0.0,6.259467738308108,6.618216,2.0,1.0,-1
3253,B3H5,mp-569405,14,-4.686432697604167,0.8115989554964317,-0.15682537017916687,920.0339432608656,3.6983,7.1260460000000005,13.650182200865489,0.0,1.0,1
3254,PCl5,mp-569410,12,-3.0111327683333333,2.0230712211153663,-1.064042644145238,512.7678094656177,1.7518,8.78962488229128,9.240754040587165,0.0,1.0,-1
3255,C,mp-569416,166,-9.19800999625,1.5831384782625817,0.028770703750000237,100.78328252927292,1.5470000000000002,19.141180726217204,19.141181279926407,2.0,1.0,-1
3256,MoCl5,mp-569436,2,-4.136895155833334,2.583785056717788,-1.284412170216667,351.1651052481526,0.0,6.468353972450314,9.497013023703204,0.0,1.0,-1
3257,CdHgAsBr,mp-569454,51,-2.251310735,5.723379749222309,-0.3706569675,542.9269974966863,1.9725,4.804863,11.064237,2.0,1.0,-1
3258,SbICl8,mp-569512,76,-2.5149497000000003,2.5718585541837395,-0.946567533108,1374.7035935516615,1.5838,7.423796,24.943478,1.0,1.0,-1
3259,TeCl4,mp-569561,15,-2.71628005875,2.505711732417357,-1.0845390913580002,1428.3180151110041,3.1084,10.541003818728507,16.218001092010383,0.0,1.0,1
3260,NbI5,mp-569578,2,-3.3843401783333333,4.301490815757599,-0.4307788258333331,561.6303165903554,0.9944,7.673431816385078,10.739259519583078,0.0,1.0,-1
3261,Bi2Pt,mp-569581,164,-4.827490696666667,12.113384375141644,-0.21049858666666665,84.03802013127154,0.0,4.159898567114948,5.607635,2.0,1.0,-1
3262,PbI2,mp-569595,166,-2.9195831033333337,5.340062470782126,-0.6660256700000003,286.70951289816423,2.4295,15.38236497546671,15.382365178869732,2.0,1.0,-1
3263,BP2N2Cl7,mp-569608,14,-4.635909797916667,1.8146028304508053,-1.1202544057407935,1277.2676149120407,3.0652,8.652038000000001,15.825563194534215,0.0,1.0,1
3264,CoI2,mp-569610,164,-3.3828330033333334,5.798238637201006,0.0026146716666666237,89.56522237761564,0.0,3.938657233724458,6.666722,2.0,1.0,-1
3265,Nb(SeBr)2,mp-569623,12,-4.832160243,4.757144978589009,-0.7587640279375002,286.6738067256956,1.05,6.817885775800662,7.611420073352016,2.0,1.0,-1
3266,TlCl,mp-569639,225,-3.122584225,5.716620099833651,-1.3148322466300002,69.66661047677215,2.5976,4.6186305758796085,4.6186305758796085,0.0,1.0,-1
3267,SnPCl9,mp-569653,67,-3.1437497731818183,2.1614608165556755,-1.2612482725374028,720.2495203503813,2.5637,6.743939,10.577748124660797,0.0,1.0,-1
3268,Tl2Hg2PdCl8,mp-569675,12,-2.6707534861538464,5.148364902405486,-1.0906491543138466,387.0415770105477,1.7020999999999995,6.759556169130117,10.149741772576188,0.0,1.0,-1
3269,Zr(TeCl6)2,mp-569684,167,-3.4685292236666667,2.5392238922568797,-1.4764949429413337,3028.5718904606456,3.0734,26.17692683984193,26.176927202432772,2.0,1.0,1
3270,BiSeBr,mp-569707,62,-3.5558122033333333,6.215972666966728,-0.5481880941145829,393.0647892813887,1.7263,4.1668449999999995,11.016514,1.0,1.0,-1
3271,CuBi(PSe3)2,mp-569715,163,-4.135873188,4.8100006276592335,-0.15674503112053556,558.0473308198067,0.6922000000000001,6.612340503628425,14.73771,2.0,1.0,-1
3272,AlPH8(CCl2)2,mp-569751,14,-4.521952586171875,1.3863228730788766,-0.8628450680825894,2221.7027646912743,5.4006,11.676341,14.870628255599186,0.0,1.0,1
3273,TlCoCl3,mp-569753,194,-3.75643254,4.944879424261484,-1.1101277989560003,248.28132245261884,0.0,5.871142,6.987879481599622,1.0,1.0,-1
3274,TiCl3,mp-569756,151,-4.944479174166667,2.4110664485959585,-2.030217937445,637.3071092285802,0.020100000000000232,6.121994583860557,19.635061999999998,2.0,1.0,-1
3275,TeI,mp-569766,12,-2.4155252875,4.922312321961768,-0.08186851500000003,343.42771235685933,0.7345000000000002,8.483640561598541,12.497183519860544,1.0,1.0,-1
3276,Si(H3C)2,mp-569770,2,-5.0992158794444435,0.9468814049278536,-0.2861830585244441,1631.763134307367,3.5723000000000003,10.655335000000001,14.754026236720946,0.0,1.0,1
3277,Al(BH4)3,mp-569787,33,-4.11249984703125,0.6183652554505286,-0.19621290458999985,768.1210830273068,6.2431,6.376631,18.611539999999998,0.0,1.0,1
3278,TiBr4,mp-569814,205,-4.1202245622500016,2.595818698356512,-1.231584926916667,1880.6240303229674,2.8424,12.343377,12.343377,0.0,1.0,-1
3279,Te2WCl6,mp-569824,2,-4.0062083883333335,3.767297521711024,-1.0320045893955558,574.5602064779528,0.0,6.699739999999999,11.54732166757045,0.0,1.0,-1
3280,Te2PdBr6,mp-569830,14,-2.7475666720833334,3.9443449899852543,-0.3822285709722222,2832.584720201671,1.3202,9.325959,19.809344662162573,0.0,1.0,-1
3281,MnBr2,mp-569843,166,-4.956028326666667,4.076517666758473,-0.8108418098850579,87.47519973435922,1.5366,7.079293606427197,7.079294029254682,2.0,1.0,-1
3282,Ga3Bi5Cl12,mp-569854,161,-3.39702972175,4.2811861968144616,-1.2179962328309997,1302.8571325411242,1.8018,12.456355951476981,12.456355970876595,0.0,1.0,-1
3283,MoCl5,mp-569855,62,-4.1394120175,2.4779248626313684,-1.2869290318833333,1464.6693530769696,0.0,6.488178,18.267614000000002,0.0,1.0,-1
3284,MnTl2SnTe4,mp-569859,121,-4.0400063875,6.784708514106892,-0.2315328868318965,267.4634299766943,0.33970000000000056,7.090262777431313,7.090262777431313,1.0,1.0,-1
3285,CrCl3,mp-569890,153,-4.9325109495833335,2.5119679605120666,-1.5788608495283334,628.0848340718791,1.4824,6.0702296650088945,19.682371,2.0,1.0,-1
3286,Cs(BBr)6,mp-569897,148,-4.613396984423077,3.1149319223770044,-0.7062191200331562,1444.024500857377,2.8672,17.21554288459182,17.215543230905062,2.0,1.0,-1
3287,ZnBr2,mp-569960,166,-2.3373449133333333,4.049330159835932,-0.8261460166666668,92.3564175309442,3.3078,7.673833336634043,7.673834004468236,2.0,1.0,1
3288,SbBr3,mp-570005,62,-2.868127939375,3.7022988117604823,-0.6081827243749998,648.5034385397063,3.119,7.1701380000000015,10.34172,0.0,1.0,1
3289,NbI4,mp-570044,36,-3.7031923780000002,4.854423341760835,-0.4637212779999999,821.6786414918198,0.4884,8.061977490348445,14.897429,1.0,1.0,-1
3290,Tl2SnHgTe4,mp-570051,121,-2.933547765,7.454647693926388,-0.23232752749999985,275.87114192597056,0.29190000000000005,7.145498540779432,7.145498540779432,1.0,1.0,-1
3291,Bi8AsAuCl9,mp-570053,14,-3.5471004269736843,6.523073147792586,-0.8977355208863159,2304.117468451485,1.3163,10.520380000000001,15.137072,0.0,1.0,-1
3292,ZrTiSe4,mp-570062,10,-6.269807675,4.817914898308259,-1.198667915451389,156.79618964890042,0.0,3.6794300000000004,6.660765756661992,2.0,1.0,-1
3293,Tl2CdSnTe4,mp-570076,121,-3.08638480375,6.9568677573477125,-0.307763391875,274.562858494492,0.4927999999999999,7.136603994206277,7.136603994206277,1.0,1.0,-1
3294,CuI,mp-570081,164,-2.964065885,5.68730065552409,-0.1524562425,111.21284589734371,1.6471,4.155511170580582,7.436616000000001,2.0,1.0,-1
3295,Hg3AsSe4I,mp-570084,186,-2.54996175,6.448460575018326,-0.2079819693750002,576.5305704116487,1.2214,7.889103586821508,10.696369,2.0,1.0,-1
3296,Hg2TeBr3,mp-570125,14,-1.8405730604166664,6.148940534398734,-0.39699951375,830.1338945990311,1.9471,7.857817,12.3206376833474,2.0,1.0,-1
3297,CuI,mp-570136,156,-2.9651827025,5.638100004466307,-0.15357305999999996,336.55002086178894,1.4615,4.167764432165522,22.372405999999998,2.0,1.0,-1
3298,AuBr,mp-570140,141,-2.5803972425,7.089623160076735,-0.12499320250000025,259.3956749663375,2.1516,7.0307381800823725,7.0307381800823725,1.0,1.0,-1