,pretty_formula,task_id,spacegroup.number,final_energy_per_atom,density,formation_energy_per_atom,volume,band_gap,min_abc,max_abc,Dimension,Dim,is_uv
920,Nb3Se5Br7,mp-1210250,11,-4.731046711333334,4.2443495300824186,-0.7815828254479167,964.6664699060848,0.9691,8.625029,13.239192000000001,1.0,1.0,-1
921,N2,mp-12103,194,-2.120834855,0.5442597096436589,8.881784197001252e-16,85.46902198354636,1.0557,3.9290037613487976,6.393125,0.0,1.0,-1
922,Re3Br7,mp-1210365,2,-5.1572954939999995,4.7628170975269715,-0.2780887605000004,1559.0756066869026,0.35990000000000005,10.187002,14.908294845590556,0.0,1.0,-1
923,Na3(CO3)2,mp-1210402,15,-6.2441706727272726,1.7493335578402538,-1.8922151397727267,358.78860751921235,0.2766000000000001,9.678645488221221,10.378762644502908,2.0,1.0,-1
924,SCl4,mp-1210452,218,-2.4532053293125,1.9029358441739417,-0.7555265745455,4855.311160042514,2.6189,16.9331994,16.9331994,0.0,1.0,-1
925,Li2(BH)11,mp-1210701,42,-4.997950474583333,0.8968474077764754,-0.2926063709299995,266.41715057050976,3.84,6.923496433285209,8.046250489652929,1.0,1.0,1
926,MgTeMoO6,mp-1210722,18,-6.311444457222222,4.511231682443122,-2.1411981436111125,253.1291308475758,3.2147,5.088778,9.272860000000001,2.0,1.0,1
927,Mn3ZnO7,mp-1210738,148,-6.6181130031818185,3.617947531315077,-1.761570198690502,314.13828198397783,1.9165,7.4956281188000515,7.495628348912785,2.0,1.0,-1
928,Li2Al,mp-1210753,63,-2.6840573566666666,1.381340819290832,-0.16291683555555514,98.24585112840359,0.0,4.4428220000000005,5.3317664764541215,2.0,1.0,-1
929,LiB3H8,mp-1211100,63,-4.26795453875,0.6590274293929919,-0.2792052495661104,239.05486075192027,0.0,5.7909440000000005,6.426242561041483,1.0,1.0,-1
930,Li(BH)6,mp-1211296,202,-5.067805947307692,0.9941481699415826,-0.3429064503887176,260.08330577860585,5.4222,7.164883911166183,7.164883911166183,0.0,1.0,1
931,KHg5Br11,mp-1211303,12,-1.8241842176470588,5.1470101344330725,-0.6103611169411766,619.7545132945697,2.1405,6.990652792468025,10.150550953122544,1.0,1.0,-1
932,Li(BH)6,mp-1211362,14,-5.114240171923077,1.0664721886437984,-0.3893406750041028,484.89092397423485,5.6381999999999985,6.802574000000001,9.86516077400475,0.0,1.0,1
933,KHg5Cl11,mp-1211367,12,-2.111549806470588,4.4600935803034485,-1.1455991290505887,533.1600952826191,2.6526,6.655132385712624,9.655377804941917,1.0,1.0,-1
934,KP15,mp-1211471,2,-5.2455109784375,2.0743911219785134,-0.10115554916071544,806.4259177878108,1.5233999999999996,7.4738089999999975,12.501176208771279,2.0,1.0,-1
935,K3(SeO4)2,mp-1211706,164,-4.951925739999999,2.308339124634676,-1.5451300825913454,290.0553544980774,0.0,6.575284016370167,7.74678,2.0,1.0,-1
936,InSbSe3,mp-1212011,62,-3.8535854155,5.4590429091962624,-0.3799015349062501,576.0683830272766,1.1027,4.08704,14.103916,2.0,1.0,-1
937,InCl2,mp-1212122,52,-3.1609185125,2.98658292949008,-1.4077899513399998,826.0998335187671,3.0239999999999996,7.702639,10.519133,0.0,1.0,1
938,HfTlF5,mp-1212176,14,-6.380773636428572,7.29298471023133,-3.606260422278572,435.2204521575003,4.767,7.671989,7.988420308495166,2.0,1.0,1
939,K3LiPb4,mp-1212210,63,-2.75162674,5.100470798915546,-0.2402882415416663,620.5518691171687,0.6089000000000002,8.959774244603489,10.358398,1.0,1.0,-1
940,HfTe7SeCl6,mp-1212434,14,-3.818233475666666,4.391760533909598,-0.95294596246025,2061.975655249977,1.015,11.709916999999999,15.665322775109425,0.0,1.0,-1
941,Hg3BI2(OF2)2,mp-1212477,14,-3.593482380208333,5.995684045702897,-1.5258165828272223,1079.4431129436466,0.1572,7.666612,13.442784,2.0,1.0,-1
942,Ge3(SbTe3)2,mp-1212511,160,-3.824042688181818,5.9913361724292775,-0.0979616313636365,340.0823785614269,0.0,21.782835542267517,21.782835672101672,2.0,1.0,-1
943,HfBr4,mp-1212517,205,-4.689013608,3.367982977566714,-1.3880346060000002,1964.676134807396,4.2937,12.524594,12.524594,0.0,1.0,1
944,In3Te3Br,mp-1212594,62,-3.201960376071429,4.833961300564272,-0.4416917303571429,1109.0840894917933,1.3042000000000002,4.423242,21.04938,1.0,1.0,-1
945,GaClO,mp-1212662,29,-4.820811989166667,3.2398297705813635,-1.97827467317,248.4284667521588,2.6767000000000003,5.1371080000000005,8.382147999999999,2.0,1.0,-1
946,Cu2NO6,mp-1213046,4,-5.382892974444443,3.5181350608584863,-0.7579064922088882,223.814986769361,0.01730000000000001,5.369425,7.1200200345511675,2.0,1.0,-1
947,CuTeSeI,mp-1213068,14,-3.20742146875,5.403479954274865,-0.14181354558593728,488.01986931601164,1.0386000000000002,4.866352,13.17557395190092,2.0,1.0,-1
948,CsSb4F13,mp-1213089,87,-4.698671011666667,4.058917036944022,-2.705417729911169,354.6666039867704,4.8426,7.930455944656902,7.930455944656902,1.0,1.0,1
949,CuTeSCl,mp-1213106,14,-3.592973986875,4.127418360749958,-0.6006368759712499,416.2618272066586,1.2166,4.92594,12.003587168982651,2.0,1.0,-1
950,CuTeSeCl,mp-1213116,14,-3.443082105625,4.625853519912491,-0.4450145920259372,438.7451132787514,1.0619999999999998,5.042255,12.117066018431895,2.0,1.0,-1
951,CuTeSBr,mp-1213133,14,-3.46994270875,4.580744691152379,-0.3818367070312503,439.5218097569504,1.2298999999999998,4.9130199999999995,12.42845619471614,2.0,1.0,-1
952,CuTeSeBr,mp-1213194,14,-3.321674338125,5.0667594474713225,-0.2278379337109375,458.83787041891577,1.0519999999999996,4.996325,12.485183733633438,2.0,1.0,-1
953,ClF5,mp-1213763,36,-2.48214295,2.5731531273705097,-1.089376009035,168.36078879814943,3.1218,4.733650108682305,7.604927,0.0,1.0,1
954,CrI3,mp-1213805,151,-3.99505506875,4.738505896201334,-0.4387837399999999,909.8197553203768,1.1611000000000002,7.007514743590982,21.394233,2.0,1.0,-1
955,Cd(GaCl4)2,mp-1213982,7,-3.094497278181818,2.632819600418822,-1.5481437710072727,675.4637649921666,3.7505,6.9489259999999975,13.378699859025538,2.0,1.0,1
956,CaAs2F12,mp-1213993,115,-4.697874959999999,3.0837990515632936,-2.806512406952,225.02849542780282,4.8487,5.376054,7.785926,2.0,1.0,1
957,Ca3Fe2Br2O5,mp-1214034,139,-5.919949204583332,3.8854246202056335,-2.4205337192708343,403.2117515674229,0.0,5.537905453949354,13.431183821668364,2.0,1.0,-1
958,Ca5Rh,mp-1214063,62,-3.128210005833333,2.4311852658959903,-0.2294921274999997,828.623031800698,0.0,6.794716,16.135423,2.0,1.0,-1
959,CCl3,mp-1214207,62,-3.816494265,1.8850143421322216,-0.5694108574449999,834.1899868173407,4.7139,6.649382000000001,11.889427,0.0,1.0,1
960,C4NCl3,mp-1214251,14,-6.31394063296875,1.8821900779124527,-0.2362971432387493,1188.6106368498813,2.1415,4.116845,21.929288253302907,0.0,1.0,-1
961,Ba2FeBrO3,mp-1214726,129,-5.887182141428572,5.562446721887629,-2.4659153576785715,273.69002844777174,1.4753000000000005,4.139055,15.975578,2.0,1.0,-1
962,BPd6,mp-1214755,15,-5.593454304285713,10.621185958247539,-0.19935678559523806,203.03561144547558,0.0,4.988260450622541,9.562230983157852,0.0,1.0,-1
963,AuI2,mp-1214760,131,-2.0602202916666665,5.4567404040033365,0.04708196499999998,274.3507249902674,0.0,4.188084,15.64139,2.0,1.0,-1
964,BSe2,mp-1214789,14,-4.69081158,3.2414302342396377,-0.13374000461805538,691.5081232645049,1.7715999999999998,7.598342,11.374863000000001,1.0,1.0,-1
965,Cs2SbF5,mp-1214796,63,-4.5661880775,4.352061121799091,-2.9383684958515084,368.2460140124175,4.7174,7.1837,8.270123563851088,2.0,1.0,1
966,AlIO,mp-1214837,29,-5.3208703050000015,3.8431843372785903,-2.149119000416667,293.61210191168016,1.6566,5.1044220000000005,9.830705,2.0,1.0,-1
967,AlInBr4,mp-1214853,13,-3.1998523904166665,3.4508816189326,-1.0256914370833332,888.1191676677391,3.5593,7.555522,13.31984671192882,0.0,1.0,1
968,AlSNCl3,mp-1214856,14,-4.485474461666667,1.85410317246855,-1.3300426592141672,642.7280545015386,2.4379,7.398322,10.026734,0.0,1.0,-1
969,AuCl4,mp-1214857,141,-2.178272549,1.3322420976106788,-0.5204154596080002,844.5237539937567,0.0,11.051541637329787,11.051541637329787,0.0,1.0,-1
970,B2NCl3,mp-1214908,92,-5.550134980138887,1.6629023881396443,-1.3713335368877777,1701.4308801886057,4.3742,10.069166000000001,16.781366000000002,0.0,1.0,1
971,Al2CdBr8,mp-1214910,7,-3.019932399545455,3.3617525085696727,-1.0645275140909094,795.858921839636,2.9212,7.427625999999999,14.063418054121726,2.0,1.0,-1
972,AsSe(BrF2)3,mp-1214921,14,-3.6326070686363634,3.3883157356445537,-1.6699606772257949,995.0230842971988,2.5742000000000003,8.059515,12.453373139863631,0.0,1.0,-1
973,AsSeS2(NF3)2,mp-1214996,14,-4.809912431875,2.7672144332621844,-1.5158078656661456,1728.293003893376,1.5211,10.225076,16.43551,0.0,1.0,-1
974,C6N7Cl3,mp-1214997,15,-7.352738194010417,1.7893664670173015,-0.17839179128791707,3078.7839847836135,2.7092,13.848530342985061,19.8329573692318,0.0,1.0,-1
975,Ti2O,mp-1215,164,-8.719517786666666,5.0129269670796175,-2.040634619305556,37.01184496851611,0.0,2.982804832674944,4.80353,2.0,1.0,-1
976,ZrTiS4,mp-1215189,164,-6.858728495,3.2702134145283344,-1.8028698093055564,135.7546813373975,0.4236,3.5705441651249745,12.295760000000001,2.0,1.0,-1
977,ZrTi2O,mp-1215204,65,-8.74628692,5.6155672187436085,-1.600199386979166,60.01507566869892,0.0,3.032517,4.8326322916988005,2.0,1.0,-1
978,ZrTaTe4,mp-1215227,164,-6.077258715,7.041395284103148,-0.5808117183333342,184.5502385154225,0.0,3.832526106811799,14.508207,2.0,1.0,-1
979,ZrO2F5,mp-1215343,10,-5.752735178125,3.097239589657925,-2.59593489855625,233.9852739122136,0.3148,5.822373824764003,7.156538,2.0,1.0,-1
980,Zr8AgPd3,mp-1215344,123,-7.619297973333333,7.773401162441338,-0.3898141005555556,247.13907707747,0.0,3.3271830000000002,22.324824,2.0,1.0,-1
981,Zr5(Te2P)2,mp-1215367,166,-7.106358242727272,6.397333147951356,-1.0937874615584413,266.95663065136324,0.0,21.160565394143067,21.16056558877037,2.0,1.0,-1
982,Zr4O,mp-1215377,148,-8.930596495333331,6.543803241273468,-1.243302897583333,289.9651786589231,0.0,10.948259626311755,10.948260064632418,2.0,1.0,-1
983,Zr3TiCu2,mp-1215384,99,-7.072523343333334,6.653058099399072,-0.11635546888888965,111.97396608562799,0.0,3.1745650000000003,11.110884,2.0,1.0,-1
984,Zr4Br4O,mp-1215390,160,-6.521852113333334,5.249027719885069,-1.52361054125,221.6080021623756,0.005600000000000271,19.71743840708412,19.7174387877626,2.0,1.0,-1
985,ZnAg,mp-1215437,65,-2.06250432,8.610236049105017,-0.016354513333333376,33.417615766872004,0.0,2.8413226476164235,4.524637,2.0,1.0,-1
986,ZnCu,mp-1215462,65,-2.731922375,8.191559501478206,-0.05244723499999981,26.140909468430447,0.0,2.5911550824607157,4.140746,2.0,1.0,-1
987,Zr2SiTe2As,mp-1215465,115,-6.422076181666667,6.203738281679858,-0.8443369241666675,144.71579462946457,0.0,3.7525239999999997,10.277061999999999,2.0,1.0,-1
988,Zr2(SeS)3,mp-1215597,6,-6.09673701125,4.429951755928294,-1.3464738495507822,193.24049750321663,0.5586000000000002,3.731225,9.608286722627088,2.0,1.0,-1
989,YBiTe3,mp-1215930,160,-4.764552136,6.376598920494423,-0.8072704933333334,177.25846086848026,1.0982000000000005,10.840093554031718,10.840093774501076,2.0,1.0,-1
990,YNO4,mp-1216049,39,-7.43716866,3.510268280212784,-2.2035677973411105,157.9143259501893,2.8794000000000004,3.95587476722507,10.095439,2.0,1.0,-1
991,Y3CBr3,mp-1216138,148,-6.0995006385714285,4.58564949441806,-1.3085044014285714,375.4714745951693,0.0,10.736774829422334,10.736774975766696,2.0,1.0,-1
992,Y4C4I3Br,mp-1216139,8,-6.659432664166666,4.841267932422441,-0.9109350276388888,296.44645143797163,0.0,4.119839488553043,20.945900779982725,2.0,1.0,-1
993,VW,mp-1216231,65,-11.08955321,13.073760446546535,-0.06853693999999955,29.82033015358877,0.0,2.720758089568604,4.294738,2.0,1.0,-1
994,VReMo,mp-1216241,42,-10.91594876,12.419836162835107,-0.12458999833333212,44.53411942262971,0.0,2.7050227825667204,6.863671399095385,2.0,1.0,-1
995,VRe11B4,mp-1216295,38,-11.038446950625,17.738492995365984,-0.24524243885416475,200.5605933325285,0.0,4.8974029835552635,14.633306,2.0,1.0,-1
996,VFe,mp-1216347,65,-8.880568915,7.331959510292123,-0.10361443999999942,24.18496103075396,0.0,2.5140017408209965,4.02021600645637,2.0,1.0,-1
997,VCrFe2,mp-1216349,35,-8.9469326825,7.540173714442048,-0.027692857499999942,47.2664859017735,0.0,2.4801590872815003,8.0611954964355,2.0,1.0,-1
998,VPPb3O8,mp-1216362,160,-6.62162727,7.20796548057933,-2.1663613552747254,191.55968631617782,3.0658000000000003,7.635944747674907,7.63594485096959,2.0,1.0,1
999,VCu(PS3)2,mp-1216387,1,-5.256492881000001,2.828114025406752,-0.7717305145892865,216.55716692808997,0.0,5.993744,7.165834305309883,2.0,1.0,-1
1000,VCl2O,mp-1216404,44,-5.39944876625,2.652944677137148,-1.8606303931925003,345.12617565280675,1.8515,3.5030600586829794,14.75448449082495,2.0,1.0,-1
1001,V4C3,mp-1216471,166,-9.58588193,5.726917903390932,-0.44074387571428375,69.5302638982621,0.0,9.544965645540325,9.544965733371704,2.0,1.0,-1
1002,V3P4WO20,mp-1216492,3,-7.367651131071428,3.8708003192424716,-2.461247648903061,334.8479874690347,0.0,4.347885,12.413394323402159,2.0,1.0,-1
1003,TlBiF4,mp-1216550,123,-4.526900135,7.4714156888909615,-2.5379188307933336,108.76077162177229,3.3696,4.041372,6.659086,2.0,1.0,1
1004,TlCoNiSe2,mp-1216559,119,-4.692735455999999,7.671084073782071,-0.2443493739375001,103.88914164042265,0.0,7.6188480836606125,7.6188480836606125,2.0,1.0,-1
1005,Tl4Sn,mp-1216560,166,-2.6699512160000003,10.130865837045773,0.021285538999999788,153.45859223143646,0.0,15.170864961952994,15.170865196267252,2.0,1.0,-1
1006,TlIn3Se4,mp-1216567,97,-3.55075316125,6.0604619213601305,-0.475709401171875,236.91765665445664,0.4851000000000005,6.794536123477013,6.794536123477013,1.0,1.0,-1
1007,Tl4BrCl3,mp-1216569,47,-3.012759035,6.805707416987635,-1.1571226112225004,244.91837554521413,2.3462,3.9441,11.138552,2.0,1.0,-1
1008,Tl4Br3Cl,mp-1216585,123,-2.89422135125,6.9891690603371535,-0.9428160366575002,259.61141209195057,2.0159,4.016141999999999,16.095544,0.0,1.0,-1
1009,TlSbSe2,mp-1216592,38,-3.6665510775,6.403726340190767,-0.2959317836718749,125.52160689823765,0.3181000000000003,4.167138,7.5372021955153885,2.0,1.0,-1
1010,V3(PS3)4,mp-1216601,5,-5.61796181263158,2.6915906031859325,-0.8505544411466163,408.10286701553116,0.0,5.97318861112731,13.412016475805569,2.0,1.0,-1
1011,Tl5BrCl4,mp-1216608,65,-3.016415895,6.7799734908741565,-1.1703563603040004,304.5882632908593,2.3283000000000005,3.936418,14.175041339948535,2.0,1.0,-1
1012,TlIn3,mp-1216611,123,-2.6387218375,7.915953094966258,0.015454205000000162,115.130265038685,0.0,3.2925269999999998,10.620154,2.0,1.0,-1
1013,TlCoNiS2,mp-1216615,119,-5.035171818,6.898240919318472,-0.59595438025,92.95128835304158,0.0,7.248311589299537,7.248311589299537,2.0,1.0,-1
1014,Tl2GaCu3Se4,mp-1216617,21,-3.716841492,7.297958424943856,-0.31357475368749943,224.1143459443351,0.29239999999999977,5.6524849999999995,7.544540379476007,2.0,1.0,-1
1015,TlIn2GaSe4,mp-1216619,23,-3.60870736625,6.00371741018108,-0.499112134609375,226.68429149179974,0.3957999999999999,6.7117926389536215,6.7117926389536215,2.0,1.0,-1
1016,TiW,mp-1216621,65,-10.446852145,11.855525692968547,-0.020042901666666783,32.45394050580856,0.0,2.7889444159812498,4.454217,2.0,1.0,-1
1017,Tl2Cu2SnTe4,mp-1216636,42,-3.458013228888889,7.300565590025058,-0.1797360205555556,264.97616490226875,0.22360000000000024,6.982915781454334,8.584208119125725,2.0,1.0,-1
1018,TlFeCuSe2,mp-1216642,119,-4.57818271,7.584289180002942,-0.1936456129375003,105.4643598529335,0.0,7.445748726784835,7.445748726784835,2.0,1.0,-1
1019,Tl2FeCu3Te4,mp-1216651,21,-3.930562705,7.4874560414356734,-0.124149448,258.5132637914656,0.0,5.85789,8.093888962193699,2.0,1.0,-1
1020,Tl2Co3NiSe4,mp-1216669,115,-4.815624874,7.801950557263543,-0.23442068043749986,204.34413894544426,0.0,3.846125,13.813870999999999,2.0,1.0,-1
1021,TiMo2,mp-1216675,69,-9.950038336666667,8.249541766606878,-0.08777897777777828,48.258348265069344,0.0,2.7896560398479235,7.034522210874312,1.0,1.0,-1
1022,TiSeS,mp-1216698,156,-6.375334306666668,3.8787682845045386,-1.4205365196006952,68.02323676417038,0.0,3.4866137426255017,6.461286,2.0,1.0,-1
1023,Tl3In5Se8,mp-1216699,89,-3.54852181375,6.3618527273605014,-0.4978549755468746,474.7653997044519,0.5379,6.962636,8.257578,1.0,1.0,-1
1024,Tl2Fe3Se4,mp-1216741,21,-5.098565183333333,7.016711149085674,-0.19668068215277795,211.12968002567288,0.0,5.5133440998234455,7.457160742864069,2.0,1.0,-1
1025,Tl2Co3NiSe4,mp-1216747,21,-4.814912521,7.812887385906747,-0.2337083274374997,204.0580888948673,0.0,5.448675,7.390661485842861,2.0,1.0,-1
1026,TlCNO,mp-1216754,46,-6.69620668375,5.503270116138754,-0.7495638496575001,148.6959511088736,2.773,5.812634814512005,5.812634814512005,0.0,1.0,-1
1027,TlBiF4,mp-1216759,26,-4.506914766666667,7.705727536482358,-2.5179334624600003,210.90725868092247,4.0710000000000015,3.8575730000000004,8.222627000000001,2.0,1.0,1
1028,TiVSe4,mp-1216764,10,-6.0479956716666665,5.1441905198687365,-0.8874883387847223,133.84808173369504,0.0,3.4677879999999996,6.4348915110653575,2.0,1.0,-1
1029,V4NO11,mp-1216776,8,-7.266479635625,2.8880468892167106,-2.0000785966331254,226.4035236387944,0.0,6.084911493466524,10.592902603843859,2.0,1.0,-1
1030,V2MoO8,mp-1216790,8,-7.277701251818183,3.5314047549147527,-2.1791758954545446,153.2064114022388,1.4254,4.3134171335469045,9.719791224499888,2.0,1.0,-1
1031,Tl3(SO4)2,mp-1216815,12,-5.447238648461538,6.327031507617687,-1.7552184620192308,211.34567787441173,0.0,5.80177440782292,7.866113101085694,2.0,1.0,-1
1032,TiNb(BiO3)3,mp-1216832,107,-7.225481984285714,8.000427806005778,-2.3770613267559533,189.2309695778233,1.788399999999999,12.951407793067556,12.951407793067556,2.0,1.0,-1
1033,Tl2FeCu3S4,mp-1216837,115,-4.484199696,6.45123259192223,-0.5459108642500006,201.67437482958192,0.0,3.8383730000000003,13.688516,2.0,1.0,-1
1034,Tl2FeCu3Se4,mp-1216847,115,-4.1921522430000016,7.3240943300645265,-0.2446947669375,220.16813892602616,0.0,3.908413,14.412973000000001,2.0,1.0,-1
1035,TiTeO3F2,mp-1216939,14,-6.5689797312500025,4.1427784625789394,-2.7665669283161907,838.4090628655887,2.7358,6.628403,18.074032865695056,1.0,1.0,-1
1036,Tl5Sb10As3S22,mp-1216976,1,-4.2220967925,4.741234925923762,-0.6350615528437494,1110.1389249274478,1.5412999999999997,7.656098501845392,17.996606250862232,2.0,1.0,-1
1037,TiBi2(O2F)2,mp-1217030,139,-6.502815388888887,8.042325109413184,-2.5584461911903693,117.24108933455037,1.2998000000000005,8.290154842352282,8.290154842352282,2.0,1.0,-1
1038,Ti8Cu3Ni,mp-1217065,123,-6.93090583,5.757515977714911,-0.16076476138889007,182.3537654609,0.0,2.9425,21.061135999999998,2.0,1.0,-1
1039,Ti8C5,mp-1217090,166,-9.098508312307693,4.564418198058688,-0.6909821866666678,161.1599417328724,0.0,19.514836131566465,19.51483639303763,2.0,1.0,-1
1040,Ti2C,mp-1217106,166,-8.97363792,4.5082799811594265,-0.6343830088888893,39.68570814519028,0.0,5.1331030420900365,5.133103415731462,2.0,1.0,-1
1041,Ti3(SeS2)2,mp-1217140,156,-6.468039592222223,3.714875577514962,-1.5157886507986111,192.11091345886126,0.0,3.4645322388289306,18.481287,2.0,1.0,-1
1042,Ti2O,mp-1217152,10,-8.669740673333333,4.904790809551801,-1.9908575059722224,113.48354065338751,0.0,2.951588,8.251806062288425,2.0,1.0,-1
1043,Ti5S8,mp-1217163,6,-6.939969343076924,3.450981407453252,-1.7660171108974367,238.59491015820453,0.0,3.41379,11.889366862343678,2.0,1.0,-1
1044,Ti5S8,mp-1217166,8,-6.934221025384615,3.453726689820801,-1.7602687932051282,238.40525693469533,0.0,5.948905150006764,12.16743143636462,2.0,1.0,-1
1045,Tl5Re6Se8Cl7,mp-1217182,161,-5.599610320961538,7.152903370352679,-0.8603919875603853,1401.7198213427994,2.016,18.454865903487594,18.454866498333303,2.0,1.0,-1
1046,Ti5MnS10,mp-1217196,164,-6.8312089075,3.3364418533651694,-1.6206423310982396,306.04571697997187,0.0,3.4347076246478387,29.96033700001736,2.0,1.0,-1
1047,TiBi8W(ClO8)2,mp-1217203,44,-6.168404353214287,8.295393278722848,-1.9519314096376201,446.4819919707735,1.1829,14.926571130996598,14.926571130996598,2.0,1.0,-1
1048,Ti4MnS8,mp-1217215,164,-6.870014946923077,3.4353142279147786,-1.5986616029221932,243.10100617492824,0.0,3.4428284253394037,23.682382999999998,2.0,1.0,-1
1049,TiBi8W(BrO8)2,mp-1217238,5,-6.1456865825,8.417229308741458,-1.9018510986904755,457.5578041297145,1.3209,5.542121364970367,15.21690325832234,2.0,1.0,-1
1050,TePtSe,mp-1217257,156,-4.610358066666667,9.281053261643118,-0.3736513607812497,71.86097677317007,0.0,3.958502612339292,5.295423,2.0,1.0,-1