,pretty_formula,task_id,spacegroup.number,final_energy_per_atom,density,formation_energy_per_atom,volume,band_gap,min_abc,max_abc,Dimension,Dim,is_uv
789,V2Pb14Cl4O17,mp-1204784,15,-5.632638637027028,7.433188232279705,-1.7414876101159462,1526.453065242814,2.3284,11.51694464178664,13.285788404528878,2.0,1.0,-1
790,As9Pb5S18,mp-1204830,2,-4.42353383046875,4.889205773325634,-0.5794988742578129,1553.800014055471,0.0,7.915196000000001,23.212836924617616,2.0,1.0,-1
791,Nb10Se40I3,mp-1204878,13,-5.192830432830188,4.856888168029956,-0.5622351997877357,3055.2825418281404,0.12890000000000024,9.713944,32.382973389802395,1.0,1.0,-1
792,AlB6H6(CCl3)2,mp-1205009,14,-4.989048622142857,1.5065518473874202,-0.7396670181561898,1475.35258547961,3.3489,9.304905999999999,14.658279975654578,0.0,1.0,1
793,KB6F6,mp-1205091,15,-5.9269552211538485,2.0761703658229926,-2.103105192318461,697.2882995331018,2.6505,8.369791527897574,11.53401592508546,1.0,1.0,-1
794,AlTeH6C2Br3,mp-1205099,57,-4.324781100384615,2.523803607005162,-0.5023474274399996,1116.8391046157526,3.717,6.963033,14.250019,0.0,1.0,1
795,VN3O10,mp-1205113,14,-6.479783690178572,2.0006164335531675,-1.2143567387242848,839.8264632251013,2.9996,5.939106,13.656928,0.0,1.0,-1
796,Re2S2O13,mp-1205130,57,-7.053490598970589,4.532408387967489,-1.934156175588236,944.5552547994168,2.0792,7.381086,17.196807999999994,2.0,1.0,-1
797,Re2P3N2(Cl5O)3,mp-1205173,2,-4.847280614,2.548116895624373,-1.3041359185249717,2797.3505120865448,0.0,12.142017,19.71016997462469,0.0,1.0,-1
798,B11H2CCl11,mp-1205245,2,-5.0116322498,1.704466050859191,-0.8927552799573328,2037.8150841363567,3.5631,9.378881,15.837198816440676,0.0,1.0,1
799,CdSi3PH27C9I2,mp-1205257,19,-4.9111043844767455,1.6239838535506987,-0.3489169642746834,5045.151339762135,3.2848,15.86757491,19.045762300000003,0.0,1.0,1
800,RbSi2BP(H3C)9,mp-1205289,14,-5.048513792835366,1.1003358127057483,-0.306129502542148,3848.066414580479,2.6532,14.25320683,17.488009882335163,2.0,1.0,-1
801,TcBr3,mp-1205299,193,-4.1914303825,4.045315424534598,-0.3735805000000001,277.2510474009011,0.0,6.1226519999999995,7.2310522354841975,1.0,1.0,-1
802,Y3H,mp-1205301,51,-5.946716006875,4.374539373598352,-0.2869285065299998,406.5055516041134,0.0,3.6746300000000014,17.377804,2.0,1.0,-1
803,TiI2O7,mp-1205304,36,-5.665862333,4.322197651700933,-1.5995447802083331,317.85593365822683,2.6437,6.683547986911818,7.3017910000000015,1.0,1.0,-1
804,LiBiO2,mp-1205315,129,-5.37939376875,7.094956996522392,-1.806821740208333,116.04895637875515,0.7824000000000004,3.492407,9.514622,2.0,1.0,-1
805,Te6RhBr3,mp-1205332,167,-3.4410551545,5.340963635622522,-0.3275658474999997,689.1035320914682,1.2836,9.523140888273467,9.523141054551802,1.0,1.0,-1
806,Te6RhI3,mp-1205361,167,-3.3113524510000003,5.2537501745863375,-0.23173732149999965,789.6747023962929,1.2217000000000002,10.097938824684617,10.097939244944584,1.0,1.0,-1
807,VCl4,mp-1205372,14,-4.4425803355,1.862288970066554,-1.622718340108,687.4866835783156,0.0,6.817769,10.296669898142891,0.0,1.0,-1
808,GeH4,mp-1205379,13,-3.5251379325000003,1.432112706394039,-0.008743032395999963,355.6045616145763,5.7843,4.610569,9.231218737301429,0.0,1.0,1
809,ZrSCl6O,mp-1205421,14,-4.449248525833333,2.1887017561504853,-1.8059749896038888,1068.2503950127723,3.3121,6.924489,22.331181,0.0,1.0,1
810,As(IF3)2,mp-1205437,12,-3.656608893333333,2.1277659131563755,-1.8532261780155552,691.0115852581532,0.0,7.2932993003223165,15.476041732408063,0.0,1.0,-1
811,Re2Te4Cl22O,mp-1205458,14,-3.479233280172413,2.9859319847452133,-1.0898317268265525,1867.2084911144927,0.07350000000000012,9.508662,18.609544554378594,0.0,1.0,-1
812,Te7OsO5F32,mp-1205467,2,-4.506365505888889,3.6470113051751327,-2.2860016706517774,1613.068148922438,1.2372,10.519061,15.674166987116413,0.0,1.0,-1
813,SbSe5F6,mp-1205478,14,-4.116268876875,3.7798567663970974,-1.6052805909465626,4432.140874123725,1.4680000000000002,13.741573707188365,20.461581997067672,0.0,1.0,-1
814,CaTlBr3,mp-1205521,63,-3.4528994670000004,4.694235770088273,-1.5972929710000003,342.54294800345014,3.7386,7.571008909350192,10.927475,2.0,1.0,1
815,TlSnI3,mp-1205533,63,-2.767149284,5.550129465083955,-0.5784967479999998,421.1428020346327,1.6359,7.947774894296516,11.920353,2.0,1.0,-1
816,Y2Br3,mp-1205567,12,-5.103997778,4.346391083212335,-1.5352534086666665,319.0299270395903,0.7002999999999999,8.843369647618381,11.014381244418821,2.0,1.0,-1
817,Nb(SeI)2,mp-1205627,12,-4.599572643,4.981197939451934,-0.5713419979374997,336.4518629582471,1.0028,7.104404772266286,8.122438978212209,2.0,1.0,-1
818,TlNiCl3,mp-1205652,194,-3.518889324,4.920668243174458,-1.138220805956,249.34109845656087,0.5729000000000002,5.903388,6.983625544012077,1.0,1.0,-1
819,ZrPt8,mp-1205768,139,-6.828575354444442,18.86269815171574,-0.4824684311111109,145.42128702360472,0.0,6.337926470410966,6.337926470410966,1.0,1.0,-1
820,CsTlO,mp-1205877,12,-3.67039303,6.514735041853712,-1.1694860897270114,180.09904446702993,1.5098999999999996,6.7150323004319965,7.4489927418370465,2.0,1.0,-1
821,ZrHBr,mp-1206023,164,-5.357787591666667,5.419104206522699,-0.8829996478733335,105.49287935517624,0.0,3.4509752345631224,10.228425,2.0,1.0,-1
822,TlCl3,mp-1206058,12,-2.64324676,3.9800783972149545,-1.112445282445,259.291238663141,2.3474000000000004,6.761395451851192,6.910119987754554,2.0,1.0,-1
823,CaInI3,mp-1206105,63,-3.016266941,4.3407602345872345,-1.1504026500000002,409.7901296905657,2.8019,7.9114875312429715,11.725475999999999,2.0,1.0,-1
824,CaTlI3,mp-1206188,63,-3.029127345,4.986424075450562,-1.2412692039999995,416.3813641588528,3.2379,7.99887616767637,11.760358,2.0,1.0,1
825,RbTlO,mp-1206230,12,-3.70536821,6.2663520711005125,-1.1760840362499998,162.0964471917865,1.2421000000000002,6.548529423414466,7.096236278856843,2.0,1.0,-1
826,NbH,mp-1206371,67,-6.891539365,7.347911280590665,-0.22101851430999986,42.44700060141111,0.0,3.0234153246022952,4.826136,2.0,1.0,-1
827,Pb2IO2,mp-1206488,139,-4.670496946,8.222739105451078,-1.1823694075,115.77559066825138,0.0,7.522556093050885,7.522556093050885,2.0,1.0,-1
828,Tl2NiF4,mp-1206532,139,-4.105320478571429,7.565529533697256,-2.1022285963942857,119.28126787686944,0.0,7.6035195805073075,7.6035195805073075,2.0,1.0,-1
829,Ge2Bi2Te5,mp-1206551,164,-3.7945308677777785,6.961716423132968,-0.1564609811111105,286.5252123981464,0.5866999999999996,4.359449613295353,17.408801,2.0,1.0,-1
830,Tl2CoF4,mp-1206757,139,-4.316594697142857,7.327923356814026,-2.082334084251429,123.20327328004521,0.0,7.6234695628150835,7.6234695628150835,2.0,1.0,-1
831,Ba(GaH)2,mp-1206799,164,-3.3835253439999997,5.202159540578896,-0.4925983124480002,88.9899325390823,0.0,4.570458229557514,4.919158,2.0,1.0,-1
832,Y2CI2,mp-1206803,164,-6.02684546,5.076864715790904,-0.9852958286666664,145.10277749706498,0.5638999999999998,3.8784973101872846,11.138278,2.0,1.0,-1
833,TlVCl3,mp-1206817,194,-4.496686014,4.472788991903252,-1.4552636179560003,268.55283392243336,0.2770000000000001,6.258046,7.0393111191095965,1.0,1.0,-1
834,YCCl,mp-1206889,12,-7.086010266666666,3.635461491542189,-1.4369760033088887,124.57673711933698,0.0,3.929166200657971,9.6222159414851,2.0,1.0,-1
835,RhI3,mp-1206891,12,-3.26657671,5.615718481343817,-0.28249028124999986,286.00724771706825,1.0586000000000002,6.930371884749692,7.250709121650653,2.0,1.0,-1
836,Hf2Se,mp-1206927,194,-8.612153085000001,11.44707568155242,-0.8087233591145839,126.476913550978,0.0,3.4498493597944244,12.27101,2.0,1.0,-1
837,Mg2Ga2S5,mp-1206963,164,-4.3375329,3.10018785541274,-1.3795661845138891,186.6016794921469,1.1585,3.73572633118715,15.439557,2.0,1.0,-1
838,TaHg3F6,mp-1207124,162,-4.632269708,7.932711007386506,-2.503057755214,187.70621553962425,0.0,5.3054934945651375,7.700100999999999,0.0,1.0,-1
839,Zr3Tl2(CuS4)2,mp-1207410,12,-5.8764531446666695,5.14292798044033,-1.4532038030000003,344.2044444341618,0.7091999999999996,7.505206169840506,14.012330421075035,2.0,1.0,-1
840,ZnH6,mp-1207466,29,-2.905636774285714,0.8482331809371512,0.05124373689714342,559.5468083758631,4.616999999999999,5.7590330000000005,11.853079,0.0,1.0,1
841,Zn4InS6,mp-1207467,164,-3.560342537272727,3.9592904793255497,-0.9577427762499996,238.57498956780688,0.0,3.8493192142590615,18.592011,2.0,1.0,-1
842,ZnAg2(PS3)2,mp-1207470,15,-4.155487701136364,3.7559475264974536,-0.6473634701569266,946.9677715422164,1.7678000000000005,6.328678731398049,27.414311650769573,2.0,1.0,-1
843,Zr(ClO4)4,mp-1207478,9,-4.843426798333333,2.187855561493796,-0.9627719394304758,742.3227164450645,4.5087,7.99845577104187,13.905290952549894,0.0,1.0,1
844,ZrBr4,mp-1207486,205,-4.3836047955,2.514287885197353,-1.3645234375000002,2170.684985242714,3.7818,12.947888,12.947888,0.0,1.0,1
845,ZrTe7SeCl6,mp-1207516,14,-3.703156741666666,4.082835836771321,-0.9318351097935832,2076.0249088458067,1.0316,11.777939,15.679314400348025,0.0,1.0,-1
846,Y3Pd,mp-1207777,62,-6.617843364375,5.504160610762804,-0.4730195768750001,450.2844468446869,0.0,6.5279690000000015,9.730905,2.0,1.0,-1
847,WCl2,mp-1207828,64,-6.276784680833334,5.316466983167634,-1.1215085396733333,954.8048049188733,2.8308,9.222462116928485,11.516614,2.0,1.0,-1
848,Y16C7(I7O)2,mp-1207850,12,-6.262614784871794,4.883864078437057,-1.1888068294658125,1127.1953195432445,0.0,11.143957647840958,26.23215335151957,2.0,1.0,-1
849,WI2,mp-1207889,64,-5.544646845,6.035638716896743,-0.20926294499999976,1444.8840225474592,1.9578,10.807778444573565,12.939533,2.0,1.0,-1
850,Y10B7C10,mp-1207937,15,-7.965896173148147,4.792583436942508,-0.4218865239197532,1503.509225084876,0.0,8.001844465798433,23.73265225229009,2.0,1.0,-1
851,TlV(SO4)2,mp-1208013,150,-6.316260084166667,3.817917539905384,-2.0933548730208336,194.6108572498356,2.0665,5.164897197368116,8.4237490056038,2.0,1.0,-1
852,TlSO4,mp-1208021,155,-5.5803901525000015,5.19229236933896,-1.7775060321875005,192.17028582437584,2.0355,9.238545884148056,9.238546274796539,2.0,1.0,-1
853,TlSn2I5,mp-1208036,140,-2.769414681875,5.737746276435058,-0.5193072112499997,622.9905276742561,1.5673999999999997,10.096280695124172,10.096280695124172,2.0,1.0,-1
854,TlFe(SO4)2,mp-1208045,150,-6.037320785833334,3.876735053887309,-1.9531575071875007,775.034298936724,2.1001,8.35320001913566,10.350868224077148,2.0,1.0,-1
855,TlHg5Br11,mp-1208065,12,-1.790544646470588,5.5660016540642,-0.503118367352941,622.4117734282672,2.1821,6.9600815558132645,10.189875658856296,0.0,1.0,-1
856,TlCSN,mp-1208088,57,-5.981582311875,4.735882495153837,-0.2281083782512497,368.1126370331183,2.2447,6.801423,7.850722,0.0,1.0,-1
857,V2NO5,mp-1208115,12,-7.51639163125,2.6135688992790134,-2.0183151723287507,248.9144388480336,2.3775,6.111959069337425,11.655163380804662,2.0,1.0,-1
858,TlCuAs2PbS5,mp-1208124,2,-4.2932961275,5.352015332902032,-0.6076268410624998,487.29949244978513,1.3425000000000002,8.02616,9.123508185140297,2.0,1.0,-1
859,Tl3GeF7,mp-1208140,127,-4.419442234090909,6.623548236711953,-2.4510933493936364,410.53948936619287,3.5969,6.049594,8.237859,0.0,1.0,1
860,Tl4SnI6,mp-1208143,55,-2.677480282272727,6.160112354475689,-0.6229112399999999,915.2584330243252,2.1939,4.659133,19.47989,1.0,1.0,-1
861,Tl2VF6,mp-1208154,225,-4.904257967777777,5.867152906702027,-2.609978764126667,162.3698612821157,0.0,6.123599879404434,6.123599879404434,0.0,1.0,-1
862,Tl2GeF6,mp-1208162,164,-4.553098248888889,6.396687824327253,-2.567583291348889,154.56124132847935,4.8418,5.017888,5.9638194599485495,0.0,1.0,1
863,Tl2SbF5,mp-1208164,63,-4.406082345625,6.369834645566728,-2.41170011199375,326.13031783375294,3.4914,6.8464899999999975,7.962946107749633,2.0,1.0,1
864,Tl2CrF6,mp-1208169,225,-4.781448518888889,6.351311748254036,-2.4607091596822217,150.26817229435628,0.0,5.967521613806689,5.967521613806689,0.0,1.0,-1
865,Tl2V3O8,mp-1208174,100,-6.828574225769232,4.987442577116607,-2.1443936165384607,459.1872380430117,2.1147,5.531646,9.111035000000001,2.0,1.0,-1
866,Tl2CoI4,mp-1208175,11,-2.8779455792857145,5.565687095145682,-0.31684926285714304,581.977777045905,0.1376999999999997,7.769525999999999,9.740044921612736,1.0,1.0,-1
867,Tl2PtI6,mp-1208181,128,-2.6014744088888886,6.406998857133452,-0.3861089244444445,707.6937403017348,0.5823,7.808185000000001,11.607673,0.0,1.0,-1
868,TlBi(MoO4)2,mp-1208190,14,-6.483615990416666,6.310362085194146,-1.9130912320833329,771.7920602100287,2.6848,5.374235,12.223423,2.0,1.0,-1
869,TlSbAs2PbS6,mp-1208201,14,-4.313553289318182,4.958910045884868,-0.6445098982954547,1172.7810914847564,1.4507,6.07682,24.680925,2.0,1.0,-1
870,Tl2S2O3,mp-1208247,62,-4.938543734642857,5.740957460517023,-1.4519320060714287,602.6633507999526,2.7808,6.31686,10.798505,0.0,1.0,-1
871,Te2Cl,mp-1208308,62,-2.956131350833333,4.67158902849747,-0.44264707191999975,826.5121925414269,0.7073999999999998,3.9980230000000003,16.104674,1.0,1.0,-1
872,TcF6,mp-1208328,62,-5.022492033214285,3.5411403892661406,-2.3247890742342854,397.63277829203753,0.0,4.962472,9.364463,0.0,1.0,-1
873,Ti2Te2(OF)5,mp-1208334,62,-6.3506418685714285,4.063701757817347,-2.7500230181333336,859.6257955319666,0.0,6.6742240000000015,16.782011999999998,1.0,1.0,-1
874,TeBr4,mp-1208424,15,-2.32369262575,3.6435132158712285,-0.38549120775,1630.5573114953272,2.5242,11.028643006825817,16.889465439932223,0.0,1.0,-1
875,Ta2Ni3Te5,mp-1208475,62,-6.062806739249999,8.236115727219579,-0.3855597442499999,948.3859079389923,0.02329999999999988,3.7268779999999997,17.80159,2.0,1.0,-1
876,Tl3Cr2(PS4)3,mp-1208541,14,-5.07836916275,3.475931225558532,-0.8630296694107138,2283.225981380353,1.5650000000000002,9.970036,19.574961919255554,2.0,1.0,-1
877,TaTlCl6,mp-1208560,15,-4.449449049375,4.054016999381932,-1.7316319905699995,489.9259313858326,2.7097,6.966137240772464,12.519918743822664,0.0,1.0,-1
878,Te2As(SeF2)3,mp-1208562,60,-4.02902678875,3.9070402659280834,-1.5326304970142708,2315.438336862499,1.1084,11.014159,15.254567000000002,0.0,1.0,-1
879,Ta4Se8SI8,mp-1208574,33,-4.933805349642856,5.275407446092782,-0.5974485340178568,3025.2808184805986,1.0721,13.355178,15.12132,0.0,1.0,-1
880,TaInSe2,mp-1208590,187,-6.0270312625,8.139754519361155,-0.6267101836718759,92.55354395674415,0.0,3.4854367627390688,8.797272999999997,2.0,1.0,-1
881,TaP4(S2Cl)5,mp-1208658,2,-4.71906054425,2.257477330137428,-0.9935568128417857,1180.9738974306515,1.6545,10.12726,12.109277427987188,0.0,1.0,-1
882,Sr2YCu2(BiO4)2,mp-1208863,66,-6.1684033886666665,6.8819712627330025,-2.1824541,452.2677998757687,0.0,5.350205,15.598028513367,2.0,1.0,-1
883,SnIBr,mp-1208879,62,-3.02599729,4.7079904933940115,-0.6358269533333333,459.24998114869584,2.3803,4.440328,11.599044000000001,1.0,1.0,-1
884,Sn7(SI3)2,mp-1208893,12,-3.372973113333333,5.017047578068455,-0.4291692194166667,548.2761438231538,0.15330000000000066,7.664016944075866,17.980225599283067,2.0,1.0,-1
885,Ti4S24Cl6O,mp-1208924,60,-4.892604002642856,2.0089518704780733,-1.2725326826183805,3933.6307554993878,1.0792,9.6637603,28.79859035,0.0,1.0,-1
886,Se(OF)2,mp-1208982,92,-4.383561692,2.4630958016972686,-1.4178931554447505,401.6840976235703,3.2431,5.831685,11.811268,0.0,1.0,1
887,ScTl(SO4)2,mp-1208994,150,-6.5652640899999986,3.790691526770909,-2.4314786259374994,193.38658855843656,4.3456,5.053751466159075,8.74315,2.0,1.0,1
888,Sb2AsS2,mp-1209066,12,-4.3898384309999985,5.014297941329248,-0.4172183072500005,253.3854569492384,0.5655999999999999,5.862666187562192,12.57728598493876,2.0,1.0,-1
889,SbSeBr,mp-1209072,62,-3.528251043333333,4.8293041761893365,-0.4409712907812497,385.9662576841497,1.4384,4.082368,10.866736,1.0,1.0,-1
890,RhF6,mp-1209109,62,-3.8968979014285714,3.5259518831810785,-1.6272395195914289,408.5865708329297,0.5952999999999999,5.004816,9.452026,0.0,1.0,-1
891,Sb2HF13,mp-1209115,2,-4.00691729375,3.0978059004685274,-2.134111613693125,263.46611207558857,0.0,5.524407,7.733108977889942,0.0,1.0,-1
892,RuF6,mp-1209121,62,-4.435800865,3.5561755516400986,-1.8932736567342856,401.68571272728263,0.0,4.970279,9.398622,0.0,1.0,-1
893,Sr2CaCu2Bi2IO8,mp-1209124,53,-5.497678308125,6.168902819730907,-1.9444045136458328,546.5789712906787,0.0,5.214930000000002,19.120353,2.0,1.0,-1
894,Sb4Te7Pb,mp-1209139,164,-3.6870286175,6.566433152192367,-0.16771540583333314,401.4365295112168,0.4955999999999996,4.380428062831303,24.157564999999998,2.0,1.0,-1
895,RePbBrO4,mp-1209145,31,-6.8189693557142865,6.57838791046456,-1.8508604028571416,271.2585311975452,2.9667,4.679803,9.837599,2.0,1.0,-1
896,Sb2Cl7F3,mp-1209192,5,-3.3846978466666666,2.510376027418668,-1.6099803701158335,725.8792120336999,1.5169,10.323797353060792,13.44392111463486,0.0,1.0,-1
897,RbHg5Cl11,mp-1209214,12,-2.112223835882353,4.55261423840066,-1.1539122687270589,539.2379314253336,2.6402,6.722940949207867,9.679534300867992,1.0,1.0,-1
898,Sb3IO4,mp-1209215,33,-5.40809835921875,5.135837066579287,-1.54638858296875,1438.6158180716463,2.5352,4.6361620000000014,19.291355,1.0,1.0,-1
899,Sb3IO4,mp-1209250,14,-5.4072903325,5.186715185308106,-1.54558055625,1424.50398355173,2.5661,4.6008260000000005,19.277972324659306,1.0,1.0,-1
900,ReF6,mp-1209252,62,-5.4970329582142865,4.823973444597453,-2.501628959948572,413.34352106135566,0.0,5.016597,9.484878,0.0,1.0,-1
901,Re3Te4Br3,mp-1209284,2,-5.724725310499999,7.0421437337387465,-0.2429688209999995,1234.398135804503,0.0,9.573986,13.672183817801606,0.0,1.0,-1
902,RbP15,mp-1209298,2,-5.23929953375,2.1555364432788537,-0.10306065912946404,847.5103738496597,1.5054000000000003,7.609286999999999,12.88839912850956,2.0,1.0,-1
903,SbTe8Cl6O6F31,mp-1209318,2,-4.139411440769232,3.260679382113336,-2.0949967965182688,1039.0083638262752,2.2963,9.36618,10.814844520593626,0.0,1.0,-1
904,Re3S4Br3,mp-1209349,2,-6.3093614570000005,5.661064869883245,-0.6957293927500003,1087.1762897638916,0.0,9.233979,12.992241141973967,0.0,1.0,-1
905,Sn2(PCl8)3,mp-1209397,135,-3.046652466206897,2.1671928164332472,-1.1724654063432511,3620.260813928136,0.0068000000000000005,14.743366199999999,15.67009406,0.0,1.0,-1
906,S3N,mp-1209413,61,-4.8372821359375,1.779380831321717,-0.24442168887625024,1645.4643083442081,1.6463,8.410511999999999,14.621979999999999,0.0,1.0,-1
907,Sb3Cl11F4,mp-1209457,14,-3.336567687083333,2.573839086943073,-1.5664807426733334,2145.175410423036,1.7209,9.836811,17.152526,0.0,1.0,-1
908,Re3Se4Br3,mp-1209495,2,-6.00551512075,6.507187870835062,-0.3827144121875001,1137.2825436579847,0.0,9.294621000000001,13.226613081953898,0.0,1.0,-1
909,RbP11,mp-1209498,11,-5.16840946125,2.2472797399955784,-0.12451958223214275,1259.633446584668,0.6393999999999997,6.8680020000000015,18.764031297161807,2.0,1.0,-1
910,Sb2Te3(SeF4)3,mp-1209641,19,-4.220146812125,3.9576278059155316,-1.9590347466905629,1831.3479687808856,1.38,8.94098,16.215297,0.0,1.0,-1
911,SbTe2SeF6,mp-1209762,19,-4.2026977133750005,4.0479658509809635,-1.959216175323376,1870.2895239388386,1.4718999999999998,9.018227,16.376124,0.0,1.0,-1
912,NbTlCl6,mp-1209881,15,-4.135655680625,3.4549063288333346,-1.6373976955699998,490.2521783807734,2.1687,6.971466333662094,12.513218743638465,0.0,1.0,-1
913,NbCrS5,mp-1209946,11,-6.385920574285714,3.7086976020257336,-1.0831631679464278,273.3262234499934,0.0,3.4054230000000003,9.974072213946569,2.0,1.0,-1
914,NbFeSe5,mp-1209948,11,-5.584963771428571,5.8584494333820665,-0.4348401559598218,308.1321470665252,0.0,3.4702260000000003,10.30049105952454,2.0,1.0,-1
915,Nb3Pb2(O2F)4,mp-1210028,139,-7.339524241176469,5.804420852386931,-2.7879516796917643,256.64624265991193,0.0,16.819094634927353,16.819094634927353,2.0,1.0,-1
916,NaAs4IO6,mp-1210094,191,-5.485697240833333,3.9614447558134263,-1.5732696354861109,228.69231894119358,2.4551000000000003,5.357870406880797,9.198914,2.0,1.0,-1
917,NaBe2Tl3F8,mp-1210101,164,-4.811099146428573,5.937978625157252,-2.8651821494895238,225.43793830574108,4.438599999999999,5.862698517262932,7.573581,2.0,1.0,1
918,Nb6HSI9,mp-1210167,2,-5.368061322352942,5.369838935914273,-0.6011983633379404,1071.5909567728115,0.0,10.55066,11.838526391990941,1.0,1.0,-1
919,Nb4P2AuS20,mp-1210205,15,-5.640336539259257,3.2041997159283344,-1.0490228073941796,1318.2320398677425,0.017100000000000115,13.136668218984067,13.417986766062484,2.0,1.0,-1