,pretty_formula,task_id,spacegroup.number,final_energy_per_atom,density,formation_energy_per_atom,volume,band_gap,min_abc,max_abc,Dimension,Dim,is_uv
2641,Sb2N5F11,mp-542148,15,-5.3323382613888874,2.9003332561879187,-1.7964263230549993,1196.6781158692424,3.9604,8.543551770027733,17.11307881496284,0.0,1.0,1
2642,P2Pb3O8,mp-542152,15,-6.628204487307693,6.956855166273604,-2.3259093578571424,387.41597035110163,3.5371,7.612415413185555,9.4919093559206,2.0,1.0,1
2643,Si6Cl10O7,mp-542214,11,-5.67025375173913,1.790636630315225,-2.4176427878847826,1177.8009210290174,5.46,6.4548830000000015,21.4035,0.0,1.0,1
2644,HgNO3,mp-542289,4,-5.0337759050000015,5.121947394910904,-0.8351461132259999,681.0676588723621,2.5913,6.374415,12.287518208940526,0.0,1.0,-1
2645,Sc5Cl8,mp-542449,12,-5.351232632307694,2.525690550772592,-2.144066990852308,334.2547141098796,0.0,9.71371635093742,13.482178416937115,2.0,1.0,-1
2646,Se,mp-542461,14,-3.4895248221875,3.5021693898110904,0.006386655468749947,1198.0337908743675,1.5816,9.450372999999999,15.435157800108971,0.0,1.0,-1
2647,Mg(AlCl4)2,mp-542463,15,-3.787396586363636,1.791556498769754,-2.049011175098181,670.853453403541,5.1644000000000005,9.809489162327312,11.696483758322284,1.0,1.0,1
2648,TaSe2,mp-542495,2,-7.09297441051282,7.705956946221972,-0.8097742154086532,949.2842539969536,0.0,9.180104,11.501541716574435,2.0,1.0,-1
2649,Bi14PdBr16,mp-542522,2,-3.294783436774193,6.216876187460621,-0.5260354758064518,1151.3717542096922,1.1683,11.118817,11.320493169579187,1.0,1.0,-1
2650,AsSe,mp-542570,14,-4.1709627253125,4.101587050305874,-0.0934477839843746,996.7903849778686,1.5425,7.099311999999999,14.588998000000002,0.0,1.0,-1
2651,AsS,mp-542604,14,-4.5050123671875,2.92482367635367,-0.43895823125,971.8489649218795,2.032,7.680631,13.71875426661506,0.0,1.0,-1
2652,Se,mp-542605,14,-3.490177538125,3.5557010601019283,0.0057339395312499,1179.9971930821644,1.4032,8.485871000000001,13.640311289893795,0.0,1.0,-1
2653,Bi3Se4,mp-542615,166,-4.000255954285715,7.2385700343647965,-0.3354346913392859,216.27545308310425,0.0,13.565673236400947,13.565673501152313,2.0,1.0,-1
2654,P4O7,mp-542622,14,-6.8114851643181815,2.029230183335191,-2.141230461866883,772.1272269144046,4.3807,6.9423020000000015,11.76533120943244,0.0,1.0,1
2655,Tl2SnS3,mp-542623,12,-3.899783715,5.959759926967722,-0.7078091457291661,347.54119938379773,0.9537,7.528170405543767,11.973217876120772,2.0,1.0,-1
2656,P4S9,mp-542630,14,-4.698408338269231,1.6979266958706276,-0.6284043192239017,1613.5896456845194,2.7178,9.225277,14.032190228664732,0.0,1.0,-1
2657,Ta2Te3,mp-542634,12,-6.985829271999999,8.876124138395605,-0.356737661999999,278.6343189731227,0.0,7.876589965722285,12.578965926946855,2.0,1.0,-1
2658,Zn2In2S5,mp-542644,160,-3.7704800000000014,4.15267421458475,-0.9496128872916666,208.2450560479026,0.00010000000000021103,15.795565784890453,15.795566306886911,2.0,1.0,-1
2659,Ga2Te2Cl7,mp-542662,14,-3.199109809318182,2.8280746547488578,-1.2791325636654547,1509.7518580454907,1.4191,9.626952000000001,13.780868125491226,0.0,1.0,-1
2660,Sn(CO2)2,mp-542769,15,-7.2225324621428575,3.227162729820466,-1.5874188721428573,212.7451321416624,2.6316999999999995,6.02437092237231,8.50105546006565,1.0,1.0,-1
2661,ZrNCl,mp-542791,166,-8.008816946666666,4.241729606509205,-2.0908090152133325,110.14883151690935,1.7419999999999995,9.793670035254607,9.793670480413152,2.0,1.0,-1
2662,AsS,mp-542810,14,-4.5314808553125,2.8780894675202973,-0.4654267193750004,987.6297781987818,2.1214,7.127198,14.702531,0.0,1.0,-1
2663,GaTe,mp-542812,12,-3.446352965833333,5.0078778220838185,-0.3606547495833332,392.57653067386804,1.0354,9.346433608814008,10.824104182712073,2.0,1.0,-1
2664,AsS,mp-542846,15,-4.527797471875,2.8885297460904886,-0.4617433359375003,492.0300485550679,2.0502,7.27688702926217,9.547937252743392,0.0,1.0,-1
2665,SnSO4,mp-542967,62,-6.0330336154166675,3.919949598945968,-1.9554963492708333,363.92130432610793,4.1877,5.4171309999999995,9.115902,2.0,1.0,1
2666,Tl2TeO3,mp-543028,50,-4.718724677916667,7.283593505137072,-1.2847907952083333,1065.8042120132118,2.0188,5.4408900000000004,17.073864,2.0,1.0,-1
2667,Tl2CO3,mp-543045,12,-5.951967344166667,6.638152969322487,-1.5041201664583337,234.52910314430318,3.0085999999999995,7.070536281165099,7.728760900633037,2.0,1.0,1
2668,CuBiTeO,mp-545369,129,-4.58192461375,8.706890946338522,-0.7373727690625005,158.72328062424143,0.0,4.061108,9.62391,2.0,1.0,-1
2669,Ca2Cu(BrO)2,mp-545481,139,-4.9512719785714285,4.171489837215984,-2.111901914642857,133.55551405583833,0.0,9.265753889339386,9.265753889339386,2.0,1.0,-1
2670,PdSeO3,mp-545482,11,-5.324629246000001,4.7021910628342845,-1.0420713072187495,164.83108117652668,1.0809,4.030541,6.565475999999999,2.0,1.0,-1
2671,CoBiO3,mp-545522,99,-5.892579522,7.652909533537186,-1.5203098197500005,137.0939705737687,0.0,4.87235500000041,5.3044421293355635,2.0,1.0,-1
2672,SnO,mp-545552,31,-5.6935326675,5.566361254993613,-1.5659140056250005,80.3721537611567,1.4791,3.3550050000000002,5.674104,2.0,1.0,-1
2673,ZnWO4,mp-545622,15,-6.4846554933333325,6.546533608625842,-2.0097335008333324,158.9110353284531,3.5492,4.880814346968136,7.4290126222865585,2.0,1.0,1
2674,Ca3Cu2(BrO2)2,mp-545706,139,-5.258710013636363,4.346532269748378,-2.124916565,179.99001934363963,0.0,12.269602258715684,12.269602258715684,2.0,1.0,-1
2675,Cr3O8,mp-545796,12,-6.835972122727273,2.7968170089442657,-1.6645661081818175,168.60799062352896,0.5084,5.260463811774015,6.8815069823909925,2.0,1.0,-1
2676,SnO,mp-545820,64,-5.76414050125,5.840915176716952,-1.6365218393749998,153.1884744568246,0.7358000000000002,3.871203202282205,10.221960000000001,2.0,1.0,-1
2677,ScBrO,mp-546279,59,-7.094078458333333,3.654161159472919,-3.022391420416666,128.0197453054515,3.2685000000000004,3.576368,8.983874,2.0,1.0,1
2678,NbI3O,mp-546285,5,-4.964806925,4.634770012578028,-1.1810052542500002,350.8401886374551,0.8325,8.053824574958162,13.211971459089256,1.0,1.0,-1
2679,PdSeO3,mp-546684,12,-5.314942663,4.737689201829121,-1.0323847242187498,163.59604941715872,0.7734000000000003,5.077716969310617,7.268165607779242,2.0,1.0,-1
2680,HgPb2(ClO)2,mp-546862,12,-4.031371607142857,7.465152115547623,-1.355941979145714,159.6876182370391,2.3759,6.315729165863036,7.911084546093601,2.0,1.0,-1
2681,Sr2Cu(BrO)2,mp-546898,139,-4.888289064285714,4.735093032138266,-2.13923860797619,151.0036152074914,0.0,9.878399681682453,9.878399681682453,2.0,1.0,-1
2682,V2MoO8,mp-546989,35,-7.263148207272727,3.4696261497221843,-2.16462285090909,155.9343359666035,1.3696000000000002,4.333199,9.867501875540992,2.0,1.0,-1
2683,RuO4,mp-547094,15,-6.444656501,2.9835711460965326,-1.1932461949999995,183.74034672410232,2.3971,5.432166766890813,8.968438574999439,0.0,1.0,-1
2684,Sr2Cu(IO)2,mp-549487,139,-4.6531274385714285,5.111788396202684,-1.9363381036904759,170.41167040695782,0.0,10.73303809967015,10.73303809967015,2.0,1.0,-1
2685,NbI2O,mp-549720,5,-5.78494713,5.133429393733927,-1.4361981953125005,234.65871112440917,0.8428999999999998,7.6045241592791974,8.281723285805015,2.0,1.0,-1
2686,NbBr2O,mp-550070,5,-6.1168813725,4.452127673945019,-1.7116754753125,200.44785868792144,0.9306,7.095958343282745,7.624104879299668,2.0,1.0,-1
2687,Tl(CoS)2,mp-5501,139,-5.3258314900000014,7.0259899168050834,-0.6209778292500004,91.31788934840236,0.0,7.066514225000117,7.066514225000117,2.0,1.0,-1
2688,CoO2,mp-550206,166,-5.738129491666666,2.1501727086303326,-1.1629132474999997,140.45023406288226,0.0,2.8203465048325183,10.223085537890848,2.0,1.0,-1
2689,YCu2Bi2(SeO2)2,mp-550306,139,-5.87702375090909,7.470141539209847,-1.6570748505776514,190.25288099834808,0.0,12.78886231779958,12.78886231779958,2.0,1.0,-1
2690,TiZn(BiO3)2,mp-550469,99,-6.433426217999999,7.312612163628576,-2.1924965120833333,142.4313513642857,1.0248999999999997,3.7822730000000004,9.956342999999999,2.0,1.0,-1
2691,Co(ReO4)2,mp-550479,147,-7.8969425063636365,4.776586351016439,-2.070697423181819,388.9011232071462,0.0,5.7951904638554375,10.039781304834383,2.0,1.0,-1
2692,CdBiClO2,mp-550553,11,-4.519208127000001,6.374422445951033,-1.6075869301519998,202.58755357260398,2.934,4.246512999999998,7.660676998345316,2.0,1.0,-1
2693,Co2TeCl2O3,mp-550564,11,-4.865259235,4.310817618342624,-1.2581798750337496,280.71315141730116,0.0,5.059813,8.528842890509592,2.0,1.0,-1
2694,PbO,mp-550714,29,-5.435354845,7.88572866132896,-1.4561985756249998,188.00105317304616,2.2424000000000004,5.4517,5.95512,2.0,1.0,-1
2695,CoSb2Br2O3,mp-550763,2,-5.0538590059375,4.652824481842631,-1.3659627857812504,728.4226282798674,1.6289,8.562724691607809,10.289209314583019,2.0,1.0,-1
2696,TiZn(BiO3)2,mp-550998,99,-6.442658353000001,7.420403252067177,-2.2017286470833333,140.3623491996041,1.8587,4.995445,5.3007610000000005,2.0,1.0,-1
2697,Tl2O,mp-551470,12,-3.811796706666666,9.508461519422825,-0.8221395637499995,148.36060191706605,0.8405,3.625628703239895,13.171924881875693,2.0,1.0,-1
2698,CoTeMoO6,mp-551806,18,-6.320089360000001,5.015987140621792,-1.7460610747222234,250.5841942568753,1.8488,5.116115134260663,9.185935017151714,2.0,1.0,-1
2699,YBi2IO4,mp-551816,123,-6.36827724375,7.656378784706027,-2.2741254658333325,151.3342340540907,1.4507000000000003,3.95211,9.689003999999999,2.0,1.0,-1
2700,NbTlBr4O,mp-551826,5,-4.6577892371428575,4.928618689756621,-1.335456430178572,213.2369487162529,1.3074,7.258359079085367,7.840462681114234,1.0,1.0,-1
2701,OsO4,mp-551905,5,-7.181972482000001,4.389479957096201,-1.5399732169999998,96.17423151129472,3.2855000000000003,4.926713778185618,5.24507824248676,0.0,1.0,1
2702,YClO,mp-552120,166,-7.509169320000002,3.83273626509135,-3.520506800392223,121.62086891676823,4.4621,9.838540624068845,9.838541305936873,2.0,1.0,1
2703,YBi2ClO4,mp-552604,123,-6.51972049625,7.314987307924013,-2.4593389231158334,137.6370782335932,1.4316,3.9012290000000003,9.043417,2.0,1.0,-1
2704,YBi2BrO4,mp-553243,123,-6.4527704575,7.529211582333204,-2.3445044389583334,143.52447007380331,1.4036,3.9196739999999997,9.341703,2.0,1.0,-1
2705,Tl2(SeO3)3,mp-553909,14,-5.032085789464285,5.3987636112009625,-1.2162265314843748,971.5039632233268,2.1345,4.799869,17.796381805814853,2.0,1.0,-1
2706,P2Pb3O8,mp-553956,12,-6.612313816153844,7.290286276468711,-2.3100186867032964,184.8484882914275,3.1837,5.54308465587384,7.58101384251559,2.0,1.0,1
2707,SClO2F,mp-554012,29,-4.69087073725,1.8859124251772863,-1.7631263542649998,834.8176607665632,4.6795,7.979478,11.193833,0.0,1.0,1
2708,Y7C3I6O,mp-554027,51,-6.393847881470588,4.728030935933284,-1.3152960548774522,1008.5385700464476,0.0,3.861925,22.651319,2.0,1.0,-1
2709,FeS3N2Cl5,mp-554079,14,-4.443968771363637,1.9415259909882687,-0.7109531586759094,1222.422290855833,1.3504,9.576969,14.915447940528805,0.0,1.0,-1
2710,SnHg2(SBr)2,mp-554096,14,-2.680289602142857,4.031226652106905,-0.5607516880357147,1225.5877026268374,2.4891,10.276943,11.97064757480079,2.0,1.0,-1
2711,Ti6O,mp-554098,163,-8.29296872142857,4.6812320960245,-0.9188804973214276,215.10480976808984,0.0,5.116793489104089,9.486886,0.0,1.0,-1
2712,LiRe(OF2)2,mp-554108,113,-6.19906565625,4.712754945381044,-2.633192965699167,212.21363121227142,3.1539,4.839077,9.062503999999999,2.0,1.0,1
2713,BaPb2BrF5,mp-554116,129,-4.911094493888889,6.693404205418839,-2.9017675851055564,360.52981942488685,3.7525,6.042602,9.874002,2.0,1.0,1
2714,Br3N(O2F5)2,mp-554129,18,-3.592444582916667,2.8043506021048845,-1.1451437484322229,1202.4976260514795,1.4972,8.511809,15.523596,0.0,1.0,-1
2715,SnS,mp-554134,39,-4.46250266,1.2825756497389549,-0.7212217990625005,390.4140513155272,1.6279,4.140519472406935,22.774007,0.0,1.0,-1
2716,Te2MoCl4O,mp-554135,14,-3.952800270625,3.5062163936313016,-1.0950109874112504,964.1546189058563,1.2255999999999998,7.190128,16.306345437068664,1.0,1.0,-1
2717,ZrHg3(SCl3)2,mp-554183,14,-3.388160659166666,4.738675899448305,-1.3941750492341671,679.7090848171209,2.5687,6.784089999999999,13.28434328243986,2.0,1.0,-1
2718,Sb3As2S14(IF8)3,mp-554195,2,-4.241338645652173,2.909295040790153,-1.8719399560284788,1027.7907245081765,1.8062,8.472305,13.465028064735884,0.0,1.0,-1
2719,TaBi4BrO8,mp-554207,60,-6.569642308392857,8.74351310052271,-2.0682019398214284,930.416054648116,1.3413999999999997,5.546443,29.89981,2.0,1.0,-1
2720,HfMo2Se8(Cl7O)2,mp-554217,14,-4.0564366190740735,3.261147873580033,-1.1453621248848145,1558.5148598462415,1.1752,7.392906,15.685624607601097,1.0,1.0,-1
2721,CuBiSCl2,mp-554238,63,-3.733691331,5.558120087502725,-0.9397047709290004,224.3665456270771,0.6787999999999998,6.8231984185631,8.484032000000001,2.0,1.0,-1
2722,NaSbCO2F3,mp-554239,15,-5.763463206875,3.440578903402696,-2.3355362699254165,474.4374995365727,3.1662,8.492972587157455,9.32751648480071,2.0,1.0,1
2723,BaPb2IF5,mp-554245,129,-4.8508123733333335,6.755701128668032,-2.8540314562166667,380.31049535063113,3.3127,6.130211,10.120161999999999,2.0,1.0,1
2724,SnSb2As2F18,mp-554260,7,-4.678917778695652,3.4637394637742074,-2.628669363322609,818.8688562116716,3.4557,6.184933,11.698364999999999,2.0,1.0,1
2725,ZrSCl6O,mp-554265,14,-4.4491338561111125,1.9504038471849847,-1.805860319881668,1198.7678956578427,3.2649,7.208252000000001,23.992339,0.0,1.0,1
2726,AsS3(NF3)2,mp-554289,2,-4.855634463333334,2.431736435633,-1.5634400313562502,427.63572648153536,0.6076999999999999,5.796764,9.631915865131193,0.0,1.0,-1
2727,CuSb2ClO3,mp-554291,36,-5.207444838571427,5.15448458835268,-1.4434367624299995,1006.4541750607727,0.7061000000000002,7.853298412228709,18.859661,2.0,1.0,-1
2728,RePCl8O,mp-554317,62,-4.228405345909091,2.623034692820821,-1.3071065887183118,1308.6727417388327,0.0335,8.397014,17.114226000000002,0.0,1.0,-1
2729,TiSCl6O,mp-554370,2,-4.240394817777778,1.9669470073097843,-1.6695889052520367,521.1369545574444,2.6221,6.6320956179804105,11.225150594083994,0.0,1.0,-1
2730,ReSbOF10,mp-554432,3,-5.255736718076923,3.7906794660632186,-2.5615293925500007,450.28063083280153,2.0037000000000003,6.698075,8.220395381122978,0.0,1.0,-1
2731,PNClF,mp-554472,36,-5.52351553,1.9332001666229488,-1.5134757401003565,512.447183111716,5.0811,7.969073,8.153970460829559,0.0,1.0,1
2732,TeBrO3F5,mp-554523,14,-4.0437951112500015,3.319048076724462,-1.5817976567200005,701.4171832783072,2.7387,5.430416,20.17216392153596,0.0,1.0,-1
2733,Hg2Mo2O7,mp-554533,2,-5.715753443181819,6.6238457731917135,-1.6288166185227282,353.5024033232517,2.2049,7.20598,8.369105363254308,2.0,1.0,-1
2734,Ta2Bi4Br7O2,mp-554564,128,-5.1001151152499995,5.7064185124737214,-1.1517478340833336,4165.055566064808,0.7267999999999999,14.993703,18.52691,1.0,1.0,-1
2735,SbS2NCl8,mp-554625,14,-3.326910810625,2.1371743564367454,-0.9053890626841667,1502.741242316684,1.8083,7.795097,16.63242386586348,0.0,1.0,-1
2736,SrTa2Bi2O9,mp-554675,139,-7.924510732142857,8.611853618018099,-2.8247897069940486,195.03203960702632,2.0651,12.88926010521209,12.88926010521209,2.0,1.0,-1
2737,H3CS,mp-554676,14,-4.839018214499999,1.1970270544677708,-0.3552221042969997,522.6989160266388,3.7617,6.6531949999999975,9.005909245127057,0.0,1.0,1
2738,SbP(OF3)2,mp-554701,2,-5.356776302,3.134459404780975,-2.701084417821144,316.50828185377566,4.4149,5.700325,7.6162566601318655,0.0,1.0,1
2739,AsSe(ClF2)3,mp-554706,14,-3.753042150909091,2.713970021718218,-1.8948709131148864,915.8910707815547,3.7144,7.893461999999999,12.202218872990107,0.0,1.0,1
2740,CuP4S3I,mp-554724,64,-4.5905930244444475,2.762720303091585,-0.4022227654067471,987.0250966749437,1.7068000000000003,10.909664999999999,11.794791659860124,1.0,1.0,-1
2741,HgAs4(S2I)2,mp-554735,14,-3.681604328181818,3.7138146378952186,-0.4197735388636368,1578.0743522868274,1.9941,10.099525,15.899304,0.0,1.0,-1
2742,V4HgO10,mp-554760,12,-6.969759136,4.516387234072778,-2.1452285138333336,414.9888721524134,0.0,9.820379237501218,11.634355105905485,2.0,1.0,-1
2743,Sb3Au3F22,mp-554764,7,-4.052144153660715,5.044933049560801,-2.14283160781,1809.1980460497064,0.1137999999999999,10.445917999999999,15.834297724220832,1.0,1.0,-1
2744,BaSb2F12,mp-554765,1,-4.831858153333333,3.783466765700701,-3.016953158952,267.2105962875023,4.0411,5.7396410000000015,9.436771037944599,2.0,1.0,1
2745,PNF2,mp-554776,14,-6.12374640025,2.179109598248409,-2.0720318210828568,1264.6174008751855,5.5601,7.622778999999999,14.954022,0.0,1.0,1
2746,RuO4,mp-554791,218,-6.44562299375,2.920827691487435,-1.1942126877499994,750.749383070429,2.4251,9.088628,9.088628,0.0,1.0,-1
2747,VF4,mp-554799,14,-5.643858995,2.9527302598391967,-3.027037673952,142.77004343712494,2.3144,5.240981,5.707204040023887,2.0,1.0,-1
2748,VPbClO3,mp-554803,62,-6.235131509583333,5.477167228707441,-2.0508980890849995,414.2491908900389,2.4171,5.3592889999999995,10.570388000000001,2.0,1.0,-1
2749,MgP4(Cl5O3)2,mp-554819,2,-4.843501070714286,1.8349756399278263,-1.9260760194945576,1083.6205511150627,3.5985,10.135494,11.596869843581546,1.0,1.0,1
2750,SbP(Cl3O)2,mp-554847,14,-4.10931912925,2.2803959899735777,-1.5536467393131441,1157.6624202900346,2.2525,8.915936,12.05493,0.0,1.0,-1
2751,Y2Te5O13,mp-554852,2,-6.388484008250001,5.259345065120024,-2.1963291097291657,646.4935658100397,2.9904,7.055092,10.794837376417767,2.0,1.0,-1
2752,CrF4,mp-554855,15,-5.298972081750001,3.0881704481406564,-2.634522480702,550.5704346216421,1.5653,7.369462188167126,9.106305509163473,1.0,1.0,-1
2753,Hg3PO4,mp-554914,14,-4.436517318125,7.640075866014423,-1.5231437141964288,605.7354776088861,2.2241,8.076242,10.22677339710551,2.0,1.0,-1
2754,Tl4Mo5O17,mp-554919,2,-6.426227431923077,5.628091318252455,-1.880222045817308,925.9821663719375,2.5425,7.96939,11.18268017387424,2.0,1.0,-1
2755,Nb2AgPS10,mp-554930,15,-5.525336560357141,3.155752266220045,-1.0125972308205786,1358.222839242014,1.4431000000000005,13.059491116329188,13.312042962645252,2.0,1.0,-1
2756,SbTe(IF2)3,mp-554942,14,-3.6575507779545458,3.932591165861934,-1.80594706724,1256.725659311993,1.9328,8.706612,13.423431443080904,0.0,1.0,-1
2757,Hg3SbAsS3,mp-554950,14,-2.8873331440625,6.762311221567216,-0.37256685148437496,878.7502269122514,1.6692,4.5796220000000005,19.727180904537274,2.0,1.0,-1
2758,Te2Pb3(ClO3)2,mp-554952,12,-5.084198891153847,6.714827447343148,-1.591411365309231,516.2034684271501,2.6027000000000005,8.859992890722319,11.10909969079425,2.0,1.0,-1
2759,Te3I(OF5)3,mp-554957,14,-4.165999125795455,3.5128354052486195,-2.120582588595455,1593.3578097518287,1.9785,10.015222,14.902107994190787,0.0,1.0,-1
2760,Ta2Tl3Cu3S8,mp-554994,5,-5.42319356625,5.766734454878364,-0.993065244687501,409.52548735683314,1.9486000000000003,7.44226536769363,10.301471824045,1.0,1.0,-1
2761,WF6,mp-555003,62,-5.270984482857143,4.183681722712121,-2.823780586734286,472.845765124648,5.3621,5.2562940000000005,9.949580000000001,0.0,1.0,1
2762,TeAs(IF2)3,mp-555034,14,-3.5881243445454545,3.8802336007452456,-1.6883281642854546,1193.5055283178708,1.8929,8.462923,13.046725550470546,0.0,1.0,-1
2763,TaS2,mp-555037,166,-7.733602056666666,6.096438133156916,-1.4656829354166672,66.75396111807504,0.0,7.0443972215639565,7.044397878990438,2.0,1.0,-1
2764,MnSb2F12,mp-555052,2,-4.935712174,3.690991982725949,-2.7500148136596776,236.83940148181247,3.2674000000000003,5.360693575746891,9.26316720314877,2.0,1.0,1
2765,SbS2NCl6,mp-555056,71,-3.529438584,2.345208754953904,-0.8743826818190001,292.1543028338669,1.7839,7.351387884465151,7.351387884465151,0.0,1.0,-1
2766,TcSb(OF4)2,mp-555059,14,-5.287572499375,3.4120500102524964,-2.42545973621,785.9627455386218,2.8188,7.554266,11.98165371528409,1.0,1.0,-1
2767,BrN(OF2)2,mp-555071,62,-4.0422769671875,2.6923553814488597,-1.0719106921425006,498.1036437947886,2.3839,5.907057,14.224653,0.0,1.0,-1
2768,Hg3AsS4Br,mp-555074,186,-2.8394178711111118,5.859421540863241,-0.4950794813888888,501.5298120651386,1.5311,7.587209477052878,10.060092,2.0,1.0,-1
2769,Sn2IF3,mp-555077,63,-4.3655694325,4.865926218641241,-2.0647683114283333,287.55791027943536,2.3739000000000003,7.293912440666463,9.473694,2.0,1.0,-1
2770,LiBS4(ClO3)4,mp-555090,14,-5.4167159239772715,1.9152045008540213,-1.85109484957,1664.0615471730832,4.6225000000000005,8.633714999999999,21.291799516442005,2.0,1.0,1
2771,MgAs2S2(OF3)4,mp-555121,14,-4.9348941517857146,2.5138874920120866,-2.463762719668096,1401.0362296403935,3.5807,10.38397,16.178740785138164,1.0,1.0,1