,pretty_formula,task_id,spacegroup.number,final_energy_per_atom,density,formation_energy_per_atom,volume,band_gap,min_abc,max_abc,Dimension,Dim,is_uv
2110,Re3(TeI)7,mp-28464,2,-4.276473172058823,5.866164251051277,-0.1585451502941177,1324.8569705977993,0.9005999999999998,11.160404,12.435748540432739,0.0,1.0,-1
2111,CClF3,mp-28473,36,-4.74822885,1.918271964625471,-1.7997724343660004,180.8482878798724,6.7176,4.894075,6.193187355824139,0.0,1.0,1
2112,Sc2CCl2,mp-28479,164,-6.66346544,2.7582170050041097,-1.7835812673039997,104.04856304059662,0.8820000000000001,3.448988670868608,10.100014,2.0,1.0,-1
2113,Sc2NCl2,mp-28480,164,-6.922966126,3.0862305850581437,-2.2979436557799997,94.06392163542117,0.0,3.3696620916539985,9.565766,2.0,1.0,-1
2114,Ti(ClO4)4,mp-28481,15,-4.744489909285714,2.2268552892579128,-0.8948926033987299,664.6605669062583,2.9099,7.649192673223037,13.400360676630466,0.0,1.0,-1
2115,WBr6,mp-28483,148,-3.731054928571429,4.176017946249249,-0.4768141128571429,263.73827834207447,1.1328,7.445155928093983,7.445156028408338,0.0,1.0,-1
2116,TlMo6O17,mp-28484,164,-6.928450235833334,4.4185123578531975,-1.9940408971354169,395.36131386395743,0.0,5.630877659122954,14.398304000000001,2.0,1.0,-1
2117,Sb5IO7,mp-28485,190,-5.596991415,5.190107029423,-1.6055547152884615,542.4317483714241,2.4519,6.947386202739704,12.976919,2.0,1.0,-1
2118,Ge5(Te4As)2,mp-28487,164,-3.8868174413333336,6.121941162649032,-0.048165206333333314,416.0455790033497,0.33619999999999983,4.200255654977207,27.2307,2.0,1.0,-1
2119,Tl3BSe3,mp-28490,11,-3.780611044285714,6.785807043319241,-0.31602745231398804,421.3087508830465,1.6664,5.865161,10.471297,1.0,1.0,-1
2120,Cu2SO4,mp-28491,70,-5.466940704285713,3.943393711673525,-1.3735028354464294,187.9380849518253,1.4397999999999995,5.90323554693458,9.268022194425953,2.0,1.0,-1
2121,Ta4SiTe4,mp-28509,55,-7.793321289722222,8.059766971376376,-0.5233625941666671,1040.258514681837,0.0768999999999993,4.83555,19.280829,1.0,1.0,-1
2122,KInBr3,mp-28529,147,-2.959353408,3.5357910555377012,-1.2047809486000003,739.4499953221291,2.3375,8.787917797025699,11.056208,2.0,1.0,-1
2123,CrInBr3,mp-28532,14,-4.1174182455,4.376033208199131,-0.6543160815,617.0451077727013,0.0,4.295885,15.155060999999998,1.0,1.0,-1
2124,CaInBr3,mp-28534,63,-3.439335072,3.8629472691645272,-1.5057224260000002,339.2549544869205,3.1362,7.509284377608094,10.961292,2.0,1.0,1
2125,SiH3I,mp-28538,14,-3.5256356514999996,2.2558150778664583,-0.19192832767200016,465.265214211963,4.2096,4.902214,11.041868030017607,0.0,1.0,1
2126,RbLiO,mp-28545,62,-3.9795856708333335,3.358712795868384,-1.6012115348611111,214.3869537892341,2.2574,3.5598669999999997,9.117514,2.0,1.0,-1
2127,WI3O,mp-28573,136,-4.0518655950000015,5.096347649845788,-0.5668996382500004,756.6443166478865,0.9198,3.86775593,13.98673533,1.0,1.0,-1
2128,W(S4Cl3)2,mp-28575,2,-4.2103056656666675,2.1006431730966346,-0.9926289146373336,1032.5042790950074,0.6467,8.512666000000001,14.512956184542176,0.0,1.0,-1
2129,RbBrF4,mp-28577,140,-3.2890121091666664,2.817200788649683,-1.90573525121,284.5354146535946,3.4059,7.51832365470076,7.51832365470076,2.0,1.0,1
2130,Y2NCl3,mp-28580,12,-6.58019306,3.405541228650648,-2.472365169248889,290.7821037735012,2.0584,8.460702894594101,10.78639711048031,2.0,1.0,-1
2131,CsB3H8,mp-28582,63,-4.244404242916667,1.9284529869889293,-0.34011499494925285,298.62356044781126,6.0171,5.755526741216048,9.121367,1.0,1.0,1
2132,Si2NCl5,mp-28583,14,-4.7610223490625,1.6532694387159363,-1.6269779601475003,994.1229432369188,5.3015,6.81758,13.449860999999999,0.0,1.0,1
2133,NbBr5,mp-28601,62,-3.920852622291666,3.5009334365879066,-0.8731963322916663,1868.5147974966592,1.5583,6.7306919999999995,19.604459,0.0,1.0,-1
2134,Ga3Te3I,mp-28608,62,-3.2738348321428568,4.703721454779259,-0.4112345589285716,1015.125995323907,1.2932,4.170049,20.946719,1.0,1.0,-1
2135,NbTe5Pd,mp-28616,62,-4.7685317889285725,6.663789139236799,-0.3402901460714288,834.6081404634599,0.0,3.7777309999999997,15.778797,2.0,1.0,-1
2136,Re(TeCl6)2,mp-28633,2,-3.3182859333333337,3.0948196269767405,-1.0664632156080005,465.1084197481607,0.8652,6.767877069271168,11.306118218006509,2.0,1.0,-1
2137,AsBr5F6,mp-28647,15,-3.1851207266666663,3.0094765981934897,-1.4045330676783332,649.3583346063947,1.6707,7.39783194262515,12.64395474882226,0.0,1.0,-1
2138,CsBr2F,mp-28650,123,-2.893988885,3.6391051747526335,-1.4965374885302591,142.23543647679614,2.2353,4.392318,7.3725929999999975,2.0,1.0,-1
2139,Ta(NiTe)2,mp-28667,62,-6.310209587999999,8.813693483073898,-0.3692790180000003,417.15358612056366,0.0,3.5764769999999997,18.023807,2.0,1.0,-1
2140,ZrTe2Br5,mp-28671,12,-3.811278159375,3.891584455463993,-0.933911260625,636.5886017232452,1.1525,9.261867754737432,9.908722853492725,2.0,1.0,-1
2141,Zr2TeBr12,mp-28672,14,-3.723974094,3.4679800622392003,-1.0651860493333336,2430.2923795842075,2.4105,7.489576,19.690910349667465,1.0,1.0,-1
2142,P4SO6,mp-28673,14,-6.507921684090909,1.9552508804544253,-1.9079102181737009,855.9178347251964,3.7055,8.482132,10.31065893451752,0.0,1.0,1
2143,S2O5F2,mp-28676,114,-5.411445676944443,2.0543611194513964,-1.965289305264444,588.8423269339429,5.6111,7.8017369999999975,9.67423,0.0,1.0,1
2144,Ta(ICl)2,mp-28683,71,-4.6263976819999995,4.5964060961610125,-1.1436967193040004,365.36060982010736,1.2037000000000002,7.96765229295713,7.96765229295713,1.0,1.0,-1
2145,Sb7Se8F35,mp-28684,14,-4.4166280481,3.811605743767755,-2.284836944408,1872.3896907494384,1.9007,11.419592,15.91966876442076,0.0,1.0,-1
2146,TaTe4I,mp-28691,2,-4.6092426091666665,6.235201564823457,-0.2834102816666668,435.8287312402955,0.7238999999999995,6.7531358369717465,9.21777554547524,2.0,1.0,-1
2147,Al3Te3I,mp-28693,62,-3.646588295714285,3.7987461729057768,-0.4764964535714285,1032.7574804738633,1.9643,4.153185,21.307713,1.0,1.0,-1
2148,Sb2S2O,mp-28711,2,-4.90738609,4.465751945997382,-1.0174565535,481.38139250062596,1.4025,6.060551,11.073829896890686,2.0,1.0,-1
2149,Si2Hg6O7,mp-28712,12,-4.415376251333333,8.313681139764226,-1.589218350583334,273.97884174632543,1.5795,6.248493484308036,7.172609122461992,2.0,1.0,-1
2150,Pt(SCl4)2,mp-28721,14,-2.9597103068181814,2.773199000932002,-0.8644652833936362,650.0822375401633,1.9064,6.7649399999999975,13.044227365773187,0.0,1.0,-1
2151,Pt(SCl3)2,mp-28722,2,-3.1126376922222216,2.8596984000515864,-0.8304162139788889,274.0364238286578,1.8451,4.894851,8.399101992277505,0.0,1.0,-1
2152,In7Cl9,mp-28730,205,-3.13874116234375,3.8846583936148655,-1.2295883560525,1919.816937994086,2.1903000000000006,12.428535,12.428535,0.0,1.0,-1
2153,Nb2Te6I,mp-28745,14,-4.893505527777778,5.903702329176133,-0.3839023861111117,1213.196592080059,0.6360999999999999,9.383068,14.285499,2.0,1.0,-1
2154,Nb3GeTe6,mp-28754,62,-5.8460899710000005,6.50676813391075,-0.4674151154999997,1140.2000191767575,0.0,6.531463,14.913854999999998,2.0,1.0,-1
2155,SbSCl9,mp-28772,166,-2.718056377272727,2.2543563933286697,-1.0010882047695453,696.6708972876994,1.6343,9.086214601185743,9.086214849752619,0.0,1.0,-1
2156,MoAs2O7,mp-28775,14,-6.40850275125,3.783801272297848,-1.7732489391250006,628.0520185440813,2.5302,4.681369999999999,17.43498973326285,2.0,1.0,-1
2157,P4N3Cl11,mp-28792,146,-4.306326393333333,1.7984123288543123,-1.0117196848492067,513.2808405470886,2.6579,8.032381696740513,8.03238204550761,0.0,1.0,-1
2158,TcO2F3,mp-28804,2,-6.034717819791666,3.1821576685519783,-2.1824509449700003,780.6297248678351,2.5594,8.071793,11.968385133550182,1.0,1.0,-1
2159,TlReO4,mp-28808,14,-7.3082939281944475,6.4096176691342865,-2.010153588194445,1413.2405509090695,3.3719,5.836721,17.83026583913232,0.0,1.0,1
2160,TlBS3,mp-28809,14,-4.664688314,4.502134236531832,-0.7726854437083333,459.403536549856,1.7414,5.831758,12.170077000000001,2.0,1.0,-1
2161,Si3CCl8,mp-28813,2,-4.366997797083333,1.7834762103378898,-1.4058702492566668,707.4096923760375,4.5636,9.04004,9.635842379257664,0.0,1.0,1
2162,Si3PH9,mp-28842,14,-4.0286392148076935,0.9755202888409528,-0.11734245528087905,846.3498618645546,4.2571,6.360305,13.157292000000002,0.0,1.0,1
2163,OsO3F2,mp-28845,14,-6.197346212916668,5.021297107470204,-1.7297743589383334,365.38958319486915,2.3215,5.1611150000000015,12.637922291748161,1.0,1.0,-1
2164,TaCoTe2,mp-28846,14,-6.644654050625,8.570470954757434,-0.33147972937500025,383.69021749754813,0.0,6.340121,8.539877676722543,2.0,1.0,-1
2165,Pb(IO3)2,mp-28857,60,-4.6431333519444475,6.227450424532652,-1.0615038950000004,594.0981071361819,2.7064000000000004,5.639743,17.056504,1.0,1.0,-1
2166,P2Se5,mp-28860,14,-4.053405596785714,3.366905947116952,-0.00967286662308656,901.0612343647696,1.3683999999999998,6.1854949999999995,22.238692,0.0,1.0,-1
2167,Os(SCl6)2,mp-28865,166,-3.04097304,1.975858255682776,-0.8263379796913332,571.3101190694152,0.05410000000000004,8.446281662281281,8.446282471315117,0.0,1.0,-1
2168,Te2OsCl12,mp-28866,2,-3.1656685593333327,3.1544986459228084,-0.994992023941333,458.4268934915442,0.0,6.771008999999999,11.299270078667028,2.0,1.0,-1
2169,W3Br7,mp-28880,201,-5.482405281125,5.172488313541781,-0.4491187621249992,2852.9502850304716,0.0,14.182889999999999,14.182889999999999,0.0,1.0,-1
2170,PSe,mp-28885,14,-4.5316190121875,2.7654143913790232,-0.07702034264508928,1056.1848935675791,2.2456,7.439375,12.779191500430885,1.0,1.0,-1
2171,CrS2,mp-28910,12,-6.501979986666666,1.8981005826573705,-0.9689709187500004,203.1840962104659,0.0,3.3126469076087783,21.44146744270221,2.0,1.0,-1
2172,MnInBr3,mp-28912,62,-4.1172430685000005,4.556818649766226,-0.7524091044310346,596.852969149175,1.6361,4.017343,15.500293,1.0,1.0,-1
2173,Ti6CCl14,mp-28913,64,-5.5297422435714285,2.710646895675758,-1.9986162209828573,974.7117273553316,0.9617999999999998,9.358328426676264,11.143778999999999,2.0,1.0,-1
2174,Hf3Te2,mp-28919,139,-7.828758228,9.956184915666254,-0.5971245460000005,131.87163907760365,0.0,9.933362289259113,9.933362289259113,2.0,1.0,-1
2175,Tl5Se2Cl,mp-28920,130,-3.1100550603125,7.871390291109713,-0.6033127063059371,1025.5040684530843,0.5641000000000003,8.771044,13.330143,2.0,1.0,-1
2176,Br2O3,mp-28933,14,-3.4100503535000004,3.1327825106316762,-0.2078804562500004,881.1854949027147,1.7938,8.242364,12.000899605576114,1.0,1.0,-1
2177,Ta2Te5Pd3,mp-28934,62,-5.9184345367499995,8.205928808937486,-0.4212640027500001,1067.7692801939106,0.0,3.743682,18.842242000000002,2.0,1.0,-1
2178,Nb3TeCl7,mp-28938,164,-5.41764512,3.729077462973004,-1.5790839484381811,582.882204494646,0.7027000000000001,6.9857016576880815,13.79209,2.0,1.0,-1
2179,BiTeCl,mp-28944,186,-3.557595028333333,5.448655034760902,-0.795199622753333,226.76274817869202,1.5598,4.302992533228125,14.141645,2.0,1.0,-1
2180,Si2Cl2O3,mp-28959,148,-6.425247079642857,1.8133602993143647,-2.6973433082528566,641.2828367373651,5.6781,8.671137191094662,8.671137632836535,0.0,1.0,1
2181,Ta4FeTe4,mp-28964,55,-7.9955196394444465,8.358332638174279,-0.3872621816666677,1025.1595056253354,0.0,4.860323,19.263697,1.0,1.0,-1
2182,AgBi2F12,mp-28965,2,-3.8818605073333337,4.985525169080717,-2.0379120920631117,251.07298489106608,0.3628,5.416455,9.225478422632293,2.0,1.0,-1
2183,TiF4,mp-28974,62,-6.4267660620000004,2.7088273335045394,-3.7112275516186672,911.1339825473063,4.166,3.913221,23.597725,1.0,1.0,1
2184,SbSeCl9,mp-28985,11,-2.732118945,2.309726895531181,-1.0130669896985225,1494.7970288114575,1.9981,9.734966,13.547209471075142,0.0,1.0,-1
2185,P2SO3,mp-29006,14,-6.353292544166668,1.9581812005738333,-1.8471995448363097,963.4015687988267,3.7573,6.759773,12.15412760997518,0.0,1.0,1
2186,P4(SO2)3,mp-29007,14,-6.212926817115385,1.833156911020116,-1.7863032895123632,1145.2896196098075,4.1409,8.683064,12.95302620567522,0.0,1.0,1
2187,P2S3,mp-29014,14,-4.810129879250001,1.7427372869295197,-0.5610216145535724,1205.4683911900404,2.4837,7.535943,13.203731,0.0,1.0,-1
2188,P4SeO6,mp-29020,14,-6.410071877954545,2.2967008388128467,-1.8079766292390416,864.2910667816707,3.1649000000000003,6.756310000000001,12.378083752140352,0.0,1.0,1
2189,TaI2O,mp-29027,12,-6.28613526625,6.295539036541912,-1.4982681840624998,237.7868863899821,0.9265999999999996,7.533539390569084,8.583977856262795,2.0,1.0,-1
2190,P3BrCl14,mp-29033,79,-2.990701756111111,2.1332478191249367,-1.0223296561863495,520.8857642003842,1.602,9.019977268990926,9.019977268990926,0.0,1.0,-1
2191,Sr(BiO2)2,mp-29048,12,-5.89905644857143,6.658228862791938,-2.1201690559523807,284.10173461502916,2.5682,6.43951779505795,10.369013918508598,2.0,1.0,-1
2192,WS9Cl4,mp-29051,114,-4.458011882053572,2.161416023757217,-0.9415519407082138,3775.171548430243,1.2565,11.346876,18.240225,0.0,1.0,-1
2193,Nb3SBr7,mp-29057,156,-5.172273141818182,4.6358534247548775,-1.0599648902840906,311.66973336076217,0.7444000000000002,6.934883999999999,7.203812696208932,2.0,1.0,-1
2194,Nb2SiTe4,mp-29072,14,-5.953964988214286,6.146944652021874,-0.4966610139285714,782.6493483749196,0.26810000000000045,6.403755,15.953383220299134,2.0,1.0,-1
2195,Nb2GeTe4,mp-29073,14,-5.822144427142858,6.183431628771179,-0.4794527621428578,825.8909428238969,0.1885000000000004,6.54705,16.374095252940755,2.0,1.0,-1
2196,Te7As2F12,mp-29074,62,-4.055527266309523,4.442061483896686,-1.7522917936561904,1900.545571466913,0.9351,9.956482000000001,16.715773000000002,1.0,1.0,-1
2197,Ga3Bi5Cl12,mp-29075,167,-3.39580701725,4.27742918388119,-1.2167735283310002,1304.0014766989675,1.8019000000000005,12.443587363612034,12.443587720628205,0.0,1.0,-1
2198,P4SO7,mp-29081,2,-6.632482082083333,2.0460728495693807,-2.0619994492633915,434.9318782286528,4.0787,7.184212,8.476821481685986,0.0,1.0,1
2199,Hg3TeBr4,mp-29097,61,-1.74693150609375,6.028266066013527,-0.4216754829687499,2311.6195791515465,1.9357,13.030674000000001,13.384687,2.0,1.0,-1
2200,Hg3TeCl4,mp-29102,61,-1.96510868453125,5.717297157176031,-0.83139044303625,2024.217675378989,2.2498,12.092564,13.104478,2.0,1.0,-1
2201,SiI3,mp-29109,62,-2.87139414625,3.264747602128906,-0.3720561800000004,1663.40959404235,2.8504,8.502995,14.725515,0.0,1.0,-1
2202,CrHg5O6,mp-29112,15,-3.8276109125,8.21541501750424,-0.9415740702083332,465.2680310339013,1.1978,6.849864025452257,8.283474900683165,1.0,1.0,-1
2203,Re3Te4Cl5,mp-29114,33,-5.386518758645834,5.394356917071705,-0.7051820787541665,3069.1429921623603,1.2409,9.432506,20.331877,0.0,1.0,-1
2204,Ta3SeI7,mp-29116,186,-5.031497964090909,6.680978591126987,-0.5099222665767048,750.6798631064772,0.5787,7.6437144301870665,14.835946,2.0,1.0,-1
2205,Ta3TeI7,mp-29117,186,-4.938762459545455,6.710127226754088,-0.4492422663636365,771.4925752767815,0.5511000000000004,7.6876014577087055,15.073682999999999,2.0,1.0,-1
2206,Bi(TeBr2)2,mp-29127,2,-2.874231495,4.737111300448586,-0.4850397335714288,549.5013563802863,1.1,7.514458999999999,9.363471891201147,2.0,1.0,-1
2207,RuCl2O,mp-29132,71,-5.213842895,3.71510294386614,-1.2069036256925,84.01933943045225,0.0,6.848419463487617,6.848419463487617,2.0,1.0,-1
2208,OsCl2O,mp-29133,71,-5.6373032075,5.372875919183909,-1.1421277394424996,85.65136536927822,0.0,6.85014310319602,6.85014310319602,2.0,1.0,-1
2209,MoCl5,mp-29147,14,-4.11992103625,2.4689943369578864,-1.2674380506333336,1469.9671648479482,0.0,9.72782,12.965180716900475,0.0,1.0,-1
2210,SeF4,mp-29172,19,-3.9318347444999997,2.9862976627761983,-2.0962123419207503,344.64953815220935,4.1432,5.389344,11.066188,0.0,1.0,1
2211,SiCl2,mp-29174,19,-4.0221794325,1.6461248217189932,-1.3778407746733332,399.4332649444606,2.0198,4.02709,13.796232,0.0,1.0,-1
2212,BaTe2F10,mp-29177,15,-4.655440633846154,4.572643947974345,-2.9315118624538457,423.0735374837059,4.9243,9.166433526408511,10.480289738093932,2.0,1.0,1
2213,SnCl2,mp-29179,14,-3.5612345883333334,3.5686580446526364,-1.388809985506667,705.8446546857613,3.0565999999999995,4.342861,16.31371140904255,1.0,1.0,1
2214,Te2O3F2,mp-29185,2,-5.004506289285715,5.074401426690333,-1.8809779273042857,223.30422440605702,3.3911999999999995,5.344311,7.126919097276046,2.0,1.0,1
2215,VHgO3,mp-29188,2,-5.88341449,6.2549579277942575,-1.7948979217500003,159.0356879130516,2.2382,3.650004,8.794358635002158,1.0,1.0,-1
2216,V(HgO2)2,mp-29189,14,-5.0565528889285725,7.38473882317758,-1.4862773639285716,928.4400698137707,1.2392999999999998,3.7389919999999996,16.875051000000006,2.0,1.0,-1
2217,Te4MoBr,mp-29190,2,-4.434061496666667,5.638733399494949,-0.2580992816666665,404.1811841368191,0.9629000000000004,6.903042,8.372166514366159,2.0,1.0,-1
2218,P4(S2O)3,mp-29204,11,-5.464322861538461,1.7865563221477312,-1.2160090882142864,677.1760365043965,3.2713,6.965406,13.003086999999999,0.0,1.0,1
2219,Li2Ga,mp-29210,63,-2.5809982183333333,2.9811365329437463,-0.2990178063888891,93.13855110554421,0.0,4.380612999999999,5.210475742485901,2.0,1.0,-1
2220,Tl4PbI6,mp-29212,55,-2.6888710586363644,6.405994983935914,-0.6612951786363636,926.0040008918961,2.3258,4.680317,19.543549,1.0,1.0,-1
2221,Te4P2O13,mp-29215,14,-6.0764981710526325,4.664235115216584,-1.940002037546992,1111.2515256312856,3.0667,4.744667,22.81172153280716,2.0,1.0,1
2222,InTeI,mp-29234,14,-2.903928908333333,4.6906925687373,-0.4309298166666664,522.9712931481207,1.7076,7.8420270000000025,8.73142586907482,2.0,1.0,-1
2223,InTeBr,mp-29236,14,-3.083065793333333,4.644534251969955,-0.5724287266666664,460.95323577181574,1.7355999999999998,7.740100999999999,8.552513147932894,2.0,1.0,-1
2224,Tl2SnSe3,mp-29237,62,-3.6043281185416665,6.677159978558128,-0.4008927438802079,1520.6992184574033,0.9872,8.281911000000001,21.658611999999998,2.0,1.0,-1
2225,GeAsSe,mp-29249,52,-4.433978337083333,4.441143581665362,-0.17462575786458304,677.5695661479848,1.4956,5.147121,12.677036,2.0,1.0,-1
2226,Te6Br2O11,mp-29251,63,-4.971824691315789,5.4415501877635455,-1.348878437828947,672.2055258520409,2.5327,6.968580304367956,15.938436,1.0,1.0,-1
2227,SICl7,mp-29264,14,-2.257340245,2.318449048533271,-0.7269003206605559,1166.4222795089536,1.6611,8.87679,13.049988,0.0,1.0,-1
2228,CuClF10,mp-29279,14,-2.73860303875,2.595601844997353,-1.1087231233466668,369.7544098648206,0.0,5.310968,9.377537,0.0,1.0,-1
2229,TlSbF4,mp-29286,14,-4.551111145416667,5.828476622808098,-2.522302019543333,458.2769028965212,3.8998,7.1076820000000005,8.483202123294308,1.0,1.0,1
2230,TlGeI3,mp-29288,62,-2.7723641760000004,5.686391015996473,-0.4610204400000001,768.288708546055,1.9175000000000004,4.454665,16.567181,1.0,1.0,-1
2231,I2(OF2)3,mp-29291,14,-3.689839544772727,3.6485623337241657,-1.4799920503081816,756.9535917932594,2.3843,8.746055,10.084646648602863,0.0,1.0,-1
2232,B10H13,mp-29292,110,-4.903178555217392,0.9206604319943807,-0.16793967233594187,1748.999133262275,3.3335,14.658356162143011,14.658356162143011,0.0,1.0,1
2233,Ga2CuCl8,mp-29300,14,-3.219450859090909,2.377331433977452,-1.3843412691890908,679.7915232885358,0.5977000000000001,6.910947999999999,12.772314468414136,0.0,1.0,-1
2234,Y2InCl7,mp-29304,62,-4.8553607432499994,3.0571086066536037,-2.4092024638653333,1174.9935054844188,4.0139,6.986001,13.231257999999999,2.0,1.0,1
2235,Si2H6S,mp-29309,60,-4.033004013055557,1.0340410800486115,-0.28166647137166634,1211.2607174476298,4.4872,8.480189999999999,15.493746,0.0,1.0,1
2236,Si2H6Se,mp-29310,96,-3.9245082095833337,1.4549196255026111,-0.17062382225708306,1289.0479610293041,3.7464,9.006994,15.889467000000002,0.0,1.0,1
2237,InI2,mp-29312,52,-2.4467990691666666,4.3617951908551875,-0.5135627491666664,1122.6926677429806,1.7858,8.546789,11.605143,0.0,1.0,-1
2238,Te3SeO8,mp-29320,2,-5.32995596875,5.190835228014803,-1.4223611339453128,377.32330398205545,2.6333,5.026029,11.81086559186684,2.0,1.0,-1
2239,Tl3BS3,mp-29337,11,-4.160711447142857,6.199362196409933,-0.7059514026488094,385.7967862193956,1.4384,5.7898510000000005,9.990775,0.0,1.0,-1
2240,Sb7F29,mp-29369,14,-4.617338646180556,3.896650712732847,-2.6701452417225,2391.993493707019,3.595,8.683518,20.35199856150869,0.0,1.0,1
2241,SbCl3F2,mp-29391,82,-3.5538387637500004,2.6372841408997374,-1.765229690776667,670.2284155338755,1.8445,10.161718908268275,10.161718908268275,0.0,1.0,-1
2242,AlTeI7,mp-29407,7,-2.336512915,3.6578007063632647,-0.38573901888888895,946.9064249104119,1.8899,7.4803039999999985,16.861058448244492,0.0,1.0,-1