,pretty_formula,task_id,spacegroup.number,final_energy_per_atom,density,formation_energy_per_atom,volume,band_gap,min_abc,max_abc,Dimension,Dim,is_uv
3036,AuS3(O3F)3,mp-560021,14,-5.2960300725,3.0454928546877267,-1.7856868999496869,1077.7338291456067,1.5561,9.675346000000001,11.14127346643538,0.0,1.0,-1
3037,AsS3(NF3)2,mp-560042,14,-4.867678659166667,2.4940375344537653,-1.5754842271895833,833.9067579360162,1.4827,8.503378999999999,11.417279819696152,0.0,1.0,-1
3038,KSb4F13,mp-560043,87,-4.716814106111111,4.114466365953663,-2.7116165701927777,312.0190485754498,4.8082,7.82736023254277,7.82736023254277,1.0,1.0,1
3039,ZrMo2Se8(Cl7O)2,mp-560057,14,-3.992626343888889,3.0588295583332603,-1.1337551171070372,1566.8510210716531,1.1741,7.4041630000000005,15.698258302098358,1.0,1.0,-1
3040,SbSO2F5,mp-560066,14,-4.928681496666666,2.8817714149638984,-2.3513400840638883,647.2486062785086,3.4749,5.95643,10.778421028152962,0.0,1.0,1
3041,Bi24Cl10O31,mp-560085,13,-5.337949504846153,7.849726530354358,-1.6838731550207688,2481.816457964582,2.1162,8.070549,29.99864768297617,2.0,1.0,-1
3042,SbAs3(S2F3)2,mp-560107,57,-4.560883450357143,2.9999892104320103,-1.6664822556885714,1303.5836922717306,2.3354,6.195598,20.810001,0.0,1.0,-1
3043,TlPb8Br9O4,mp-560133,85,-4.0792506575,6.581582936490973,-1.1802583722727276,1334.730562710401,2.9557,8.405302,12.601439,0.0,1.0,-1
3044,TaP4(SCl)5,mp-560192,2,-4.869420363666666,2.3551913506611326,-1.0597453440807143,905.9008936278276,2.177,6.931042999999999,13.659534648981163,0.0,1.0,-1
3045,SnSe2(Cl4O)2,mp-560193,15,-3.416934107307692,2.5045777351226324,-1.1458930640974998,785.3291178882757,2.775,6.843764064202683,16.848124102354213,0.0,1.0,-1
3046,MoPCl8O,mp-560214,62,-3.8306193336363634,2.097926664701054,-1.375673681445584,1350.4411432010095,1.4825,8.4212,17.238945,0.0,1.0,-1
3047,NbPCl8O,mp-560255,62,-4.389355996363636,2.052960086827817,-1.6810774341728567,1370.205257952402,2.3872,8.622336,17.124848999999998,0.0,1.0,-1
3048,Zn(InS2)2,mp-560262,186,-3.891295647857144,4.163813644137857,-0.9405712853571424,337.63013893608365,0.13060000000000027,3.924758751964508,25.309566,2.0,1.0,-1
3049,PNF2,mp-560275,33,-6.1157358506250015,1.7697170681978514,-2.0640212714578574,934.2984703759391,5.8161000000000005,7.52002,13.738377,0.0,1.0,1
3050,NbCoTe2,mp-5603,64,-6.251827575,7.089603944528817,-0.3777714012500004,381.34999993130486,0.0,6.375255999999999,8.606776264023656,2.0,1.0,-1
3051,SbPOF8,mp-560310,14,-5.04513664159091,2.8549233987733023,-2.7585590378946754,746.1758634837307,4.6921,5.60352,17.513242,0.0,1.0,1
3052,Ta2Te4Br10O,mp-560333,2,-4.2138899605882365,4.557288970243012,-0.8666140871323532,614.8141954400478,1.0536,7.455005,9.681925657570606,1.0,1.0,-1
3053,SbCl(OF3)2,mp-560354,59,-4.21738589,3.1237520924323663,-1.97763749429,322.35536954494586,1.9280000000000002,5.841458,7.652413,0.0,1.0,-1
3054,Cs2Al2P2O9,mp-560387,2,-6.890738568000001,3.3363974556973286,-3.0027707449503294,261.65111977368724,4.9042,4.988099,8.240401933559612,2.0,1.0,1
3055,P3S3N6F5,mp-560409,61,-6.061338583676473,1.9696897425212831,-1.268608526048194,2482.9289879887265,2.1283000000000003,10.005614999999999,16.392570000000006,0.0,1.0,-1
3056,CdSb6(S2I)4,mp-560411,2,-3.7421110763157897,4.5045652987949465,-0.6064865186842108,592.4360959388665,1.7385999999999997,7.565503,9.146432132958676,2.0,1.0,-1
3057,Te4Mo(OF4)5,mp-560414,14,-4.5786402944999995,3.147043009979808,-2.2610677355016677,2250.545937974674,2.9757,9.452796000000001,20.802316329320764,0.0,1.0,-1
3058,AgHg2NO5,mp-560443,62,-4.3593483244444435,6.965862700696539,-0.7348242950329633,575.0278362720093,0.8351,6.506371,13.006129,2.0,1.0,-1
3059,Sb2SNF11,mp-560450,14,-4.628867494833333,3.1594200009171223,-2.274899761073,1048.169384071235,3.5649,8.309073,12.051955,0.0,1.0,1
3060,TiSCl6O,mp-560517,14,-4.245525904166667,1.9378644048468383,-1.674719991640926,1057.9158898853048,2.659,7.915578,12.971237508560586,0.0,1.0,-1
3061,AuSeClO3,mp-560549,2,-4.380166513333333,4.926911402086226,-0.920059779892292,484.4908108876168,1.546,4.4935870000000016,10.903498846164704,2.0,1.0,-1
3062,IrF6,mp-560553,62,-4.332280306785714,4.587660938059625,-1.8520329892342853,443.3364966848858,0.7829000000000002,5.1343879999999995,9.749503,0.0,1.0,-1
3063,NbSe2SN2ClF6,mp-560589,14,-5.390367818076923,2.800527144033072,-1.832812893690192,1091.8318297885871,2.1919,8.543657000000001,13.716427663236265,0.0,1.0,-1
3064,AlTlF4,mp-5606,123,-5.266020435,5.761775532994148,-3.301115544126666,88.58045806830563,4.5343,3.697743,6.478351,2.0,1.0,1
3065,RePbClO4,mp-560625,31,-6.899460675,6.236937284657958,-1.9860768026085711,262.43948326493353,3.3721,4.684515,9.601449,2.0,1.0,1
3066,Al2SnCl6O,mp-560633,14,-4.39811543625,2.2902291794330973,-2.0711659518309995,1164.1185508199699,3.9589999999999996,9.578244,12.827340097669705,1.0,1.0,1
3067,SbS(BrF2)3,mp-560639,19,-3.707102683636364,3.2438613486317767,-1.7947325445695457,1039.2171753058992,2.6483,8.493333999999999,12.779312,0.0,1.0,-1
3068,Nb3Te8I7O,mp-560687,14,-4.270908160394736,4.7861953614805905,-0.5675357217763161,3058.4449344355157,0.4605000000000001,9.213007000000001,20.64915783366504,1.0,1.0,-1
3069,AuN5O14,mp-560745,14,-5.9171276504999994,2.864751812110632,-0.7933496984699999,569.2017328013825,1.9354,7.950316,9.628926701024367,0.0,1.0,-1
3070,SbCl3F2,mp-560748,79,-3.549579655,2.6768368540282537,-1.7609705820266666,660.3251776094952,1.7137,10.137864885318407,10.137864885318407,0.0,1.0,-1
3071,SbI(ClF3)2,mp-560789,64,-3.6976956645,3.2405267352289453,-2.029294003366,888.676259250883,1.8658,8.218033046974258,13.247023,1.0,1.0,-1
3072,Te7(OF5)6,mp-560802,148,-4.3029403718604655,3.822393617176795,-2.2077402942604647,677.331339348269,2.3684000000000003,10.770614154545132,10.770614669402113,0.0,1.0,-1
3073,Cu2As4S3Cl2,mp-560845,11,-4.166822596818182,3.8021141195020673,-0.552135459172273,518.7429485562719,1.5025999999999995,6.271619,11.99361662688282,2.0,1.0,-1
3074,Nb2TlPS10,mp-560847,7,-5.547758145357144,3.4724047429654594,-1.0686547460586746,709.4914826992627,1.4255,7.258423,13.18584424902558,1.0,1.0,-1
3075,BaPb2C2(O3F)2,mp-560874,166,-6.676854447692307,6.161489104803178,-2.3604760284523083,191.27740787529763,4.1272,8.570749253010558,8.57074936600581,2.0,1.0,1
3076,SeO2,mp-560882,26,-5.149899676666666,3.818278889972912,-1.154152204947917,193.0203921635103,3.4647,4.662733,7.935917999999999,1.0,1.0,1
3077,TaSCl7O,mp-560884,62,-4.43862120875,2.5147490099348992,-1.6032822284694999,1260.374654071484,2.8496,7.694843,17.020024,0.0,1.0,-1
3078,SnP2Cl8O3,mp-560891,2,-4.359678052142857,2.223131992710024,-1.6736817808552042,765.281141667257,3.0751,8.980355,11.0415136010077,0.0,1.0,1
3079,RbSb2C2O4F5,mp-560900,19,-5.954582030535714,3.587208281784647,-2.256188423639286,948.0286275409364,3.0727,6.15305,23.137764999999998,2.0,1.0,1
3080,PdSCl,mp-560901,14,-4.124287824166667,3.5984346400136222,-0.8220469396283341,1284.251061634633,0.9775,9.254538,16.849502594299484,0.0,1.0,-1
3081,MoSeS2Cl5,mp-560907,15,-4.1213404308333335,2.502726026666845,-1.0594749724881949,1104.8338545484219,2.0114,10.15007988234206,14.224560855391953,0.0,1.0,-1
3082,AgPb4ClO4,mp-560923,85,-4.935955608,7.345343813075236,-1.343989894492666,468.4643193899436,2.4592,6.551467,8.456078,2.0,1.0,-1
3083,Sb2IBr2F11,mp-560928,61,-3.957105243984375,3.570453873951253,-2.1644852660525,2750.3399221101354,1.6859000000000002,12.868021,14.774069,0.0,1.0,-1
3084,ReSF4,mp-560960,29,-5.7232148674305545,4.165422110743613,-2.123261936244722,2815.404727896776,0.4973,8.614767500000001,28.673451300000004,1.0,1.0,-1
3085,AsSe2S(NF3)2,mp-560986,14,-4.753383853125,3.0706522588016587,-1.4573691526843746,1760.383373275553,1.5689,10.12706,16.594129000000002,0.0,1.0,-1
3086,Y(IO3)3,mp-560995,14,-5.280883964230768,4.937379125584808,-1.4924610275320518,825.482313932322,3.4466,6.1523449999999995,16.762781536864487,2.0,1.0,1
3087,NbP4(SCl)5,mp-561020,14,-4.707077912,1.9896979407006663,-1.0145010650807142,1850.710312456731,1.5808,7.2724470000000005,18.74227848161317,0.0,1.0,-1
3088,Zn2SeCl2O3,mp-561112,14,-4.1817747203125,3.4314826841941075,-1.5242625881392189,636.2143526004294,4.1560000000000015,7.81274,10.444938,2.0,1.0,1
3089,Sn2SbS2I3,mp-561134,63,-3.45280249125,5.2902616760081935,-0.4945321751562504,504.7433811528839,0.8162000000000003,7.5523284969845585,16.047895999999998,2.0,1.0,-1
3090,NbP4(S2Cl)5,mp-561160,2,-4.60067025575,1.9082919421709488,-0.9629901538417862,1243.8500881417951,1.1953,10.302194,12.326450921351773,0.0,1.0,-1
3091,Sb2POF13,mp-561176,14,-4.8500090574999986,3.0294602669522988,-2.7097675545759663,1178.4197114360181,4.0801,7.469936,15.0466,0.0,1.0,1
3092,TaF5,mp-561197,12,-6.7579224700000005,4.812643741029091,-3.5978344201583337,380.83764516802717,5.5558000000000005,5.251346447620648,8.884277753534722,0.0,1.0,1
3093,F2,mp-561203,15,-1.9114789675,1.653847564795886,0.0,76.30108454526636,2.9340000000000006,3.5569830317690583,6.887938044646453,0.0,1.0,-1
3094,CuGeO3,mp-561216,64,-5.9048465085,4.710947120363704,-1.6130003222499991,1038.7552285727384,0.0,8.76871,11.92274,2.0,1.0,-1
3095,TlCr3O8,mp-561221,12,-6.73000034875,4.083329456539675,-1.7927404204166668,397.20143028461473,1.9409,5.2823491074850395,15.985338302137524,2.0,1.0,-1
3096,BTe3(OF5)3,mp-561226,176,-4.646608194318183,3.338770654522016,-2.36685624094394,722.7349910273947,3.8123,9.396133357961082,9.452574,0.0,1.0,1
3097,AsCSF11,mp-561235,14,-4.535383731785714,2.5637315223350794,-2.1793165572296442,849.7350968430162,4.5981,6.378019,11.917831188823323,0.0,1.0,1
3098,AsCSCl2F9,mp-561244,14,-4.297821027321429,2.574422036325247,-1.965568018061072,931.1141009828044,3.810400000000001,7.866761,12.458829253144655,0.0,1.0,1
3099,As3Pb2ClO6,mp-561268,62,-5.667105539791668,5.591165646320912,-1.6562311111049997,915.4691993207024,3.3930000000000002,5.4668019999999995,19.931651000000002,2.0,1.0,1
3100,As2Pb4S6ICl,mp-561299,31,-4.203095236071428,5.69183616887654,-0.7899075301435724,778.0080918990958,1.8434,6.799005,11.775915,2.0,1.0,-1
3101,PbS,mp-561320,5,-4.399087295,1.9655454653586162,-0.8062688265625004,404.27340580245436,2.0532,4.25427879109891,22.43860283892105,0.0,1.0,-1
3102,AsSeS2N2ClF6,mp-561321,14,-4.618129545480769,2.609322929226686,-1.4809675630772114,2013.367536329484,2.2257,9.545536,19.990687,0.0,1.0,-1
3103,SbSe(BrF2)3,mp-561328,19,-3.7049098379545455,3.454843247439196,-1.7904559160894318,1065.9124255931208,2.5985,8.524942999999999,12.857966000000001,0.0,1.0,-1
3104,TiSCl6O,mp-561355,14,-4.244395293611111,1.9553088930558031,-1.6735893810853701,1048.4775851076188,2.6486,6.891238,22.022979,0.0,1.0,-1
3105,Hg2Mo2O7,mp-561361,15,-5.7152861759090925,6.709219286827749,-1.6283493512500002,698.0083076619667,2.2744,7.316332199597283,14.935757128377025,2.0,1.0,-1
3106,F2,mp-561367,12,-1.90213894,1.971817735041903,0.0,63.996971233140926,2.456,3.2031463392584802,7.254754301626487,0.0,1.0,-1
3107,S,mp-561370,29,-4.108087514659092,1.5709463179141958,0.028362352215908836,2982.645709515884,2.3629,9.021433,20.320624,0.0,1.0,-1
3108,GaRe(Cl3O)2,mp-561379,14,-4.679184949,2.8175049563914443,-1.5304790004560005,1180.2549884888665,1.9694,8.663964,12.456848444857993,0.0,1.0,-1
3109,NbBi4BrO8,mp-561382,60,-6.365410176785715,8.042354413998009,-1.9894321360714289,938.8195512352199,1.4756999999999998,5.5803730000000025,29.781325,2.0,1.0,-1
3110,TcSO6F,mp-561392,14,-6.416360127222222,2.9019124105346012,-1.8910098246461104,560.9147614375325,2.73,7.317627000000001,9.254967556903482,2.0,1.0,-1
3111,SO3,mp-561397,14,-5.804094601875,2.144526113545601,-1.7515980335937495,247.97659596171118,5.1612,4.179412999999999,9.746482566049613,1.0,1.0,1
3112,OsOF4,mp-561449,14,-5.486244592083334,5.004792841994076,-1.9603778497516664,374.554834170702,0.6909000000000001,5.645388,13.076165,1.0,1.0,-1
3113,Hg2PO3F,mp-561472,72,-4.784405973571428,6.254725514231465,-1.901806954787347,530.0687805636511,1.8889,9.026791022821676,9.026791022821676,2.0,1.0,-1
3114,S,mp-561513,2,-4.117498591071429,1.5839867992460366,0.018951275803571224,941.2106120356874,2.4271,6.059369,15.544435308717615,0.0,1.0,-1
3115,NbTlCl4O,mp-561523,61,-5.030577588571427,3.734947900179337,-1.92714510347,1618.6852246170627,2.1768,8.085407,15.330447,1.0,1.0,-1
3116,SbOF,mp-561533,61,-5.4811022439583335,4.871832824602719,-2.216029963105001,854.8814069102506,3.3334,5.751618,12.610486,2.0,1.0,1
3117,WSBr4,mp-561582,14,-4.441569915,4.105836488860012,-0.6117661655208332,866.3311789423941,1.3225,6.481749,13.654624990341,0.0,1.0,-1
3118,TeF4,mp-561664,19,-4.2574565025,3.963945967336222,-2.492356209452,341.1501070402539,4.0184,5.575533,9.833743,1.0,1.0,1
3119,ZnCoTeBr2O3,mp-561705,56,-4.39568115234375,4.40842356096472,-1.1896546746875,1385.4025778540795,2.6265,7.806239,16.439753,2.0,1.0,-1
3120,Cs11O3,mp-562001,14,-2.4083527826785707,2.512526068644122,-0.7950368898922413,3991.750872562146,0.0,9.349774,24.333234088959088,0.0,1.0,-1
3121,CaCo2Te3(ClO4)2,mp-562004,14,-5.32618742296875,4.360002084802474,-1.6776146752512495,1126.7979911427487,2.1796,6.594132000000001,19.17023823576796,2.0,1.0,-1
3122,PO2,mp-562065,15,-6.909892047083333,2.211525420575996,-2.275019780773809,378.2670489861448,4.5836000000000015,7.233591191981269,7.29814451536005,0.0,1.0,1
3123,NbS3,mp-562100,2,-6.38347587875,3.8364307554552637,-1.2534072185937504,327.3983022802753,0.3758000000000008,5.036274,9.607492560811798,2.0,1.0,-1
3124,SrCo2Te3(ClO4)2,mp-562378,14,-5.29903959546875,4.536031078216314,-1.6702242619179175,1152.6867637350588,1.8987000000000005,6.706548,19.465442068654003,2.0,1.0,-1
3125,MoO3,mp-562561,11,-6.9927474475,4.434328592516095,-1.9798375884375,107.80211673057993,1.7643999999999995,3.764224,7.491841622497701,2.0,1.0,-1
3126,P2O5,mp-562613,161,-7.018614088214287,2.0262565767915097,-2.4393427929846934,465.300258795792,5.5533,7.754655904568557,7.754656143706825,0.0,1.0,1
3127,CoSb2S2(OF3)4,mp-562774,2,-4.988867192619048,3.0407469144611743,-2.3951736931204772,719.2754614491744,3.1637,5.203447296138301,15.935328206889992,1.0,1.0,1
3128,Hg4Se4O9,mp-565679,14,-4.104392438529412,6.485784829786008,-0.9626655803308825,1292.6259491841413,2.253,9.975201,15.29665178494987,2.0,1.0,-1
3129,P2O2F3,mp-565711,158,-5.894539726666666,2.0782736895898286,-2.5260321464113606,1447.226019772886,5.3101,9.5403,13.234936178867846,0.0,1.0,1
3130,Sb3C2N(OF8)2,mp-566334,14,-5.1989909165625,3.058344860374893,-2.2817754838091666,1605.5816082506194,3.9607,7.5671880000000025,21.558399804032877,0.0,1.0,1
3131,Cr(B3H8)2,mp-567148,2,-4.536378038695653,1.0573964512931455,-0.12050044403999965,208.8466082267135,1.0282,4.475192024334262,8.989252938415182,1.0,1.0,-1
3132,PbI2,mp-567178,156,-2.9200030555555565,5.471911796118728,-0.6664456222222219,419.70158700192167,2.447,4.6612939839716185,22.304731,2.0,1.0,-1
3133,Nb3Se12I,mp-567252,114,-5.1703366478125,4.834589833423517,-0.5591575561328126,1859.0597378839248,0.0849000000000002,9.784904,19.416914000000002,1.0,1.0,-1
3134,CdI2,mp-567259,164,-1.90829464,5.090555724733785,-0.5846563100000001,119.4609292622389,2.4036,4.346905113308663,7.3002020000000005,2.0,1.0,-1
3135,TeI4,mp-567269,31,-1.967734415,4.224738052159862,-0.11986413700000005,1997.3860485926627,1.8301,7.547928999999999,17.422567,0.0,1.0,-1
3136,HfI4,mp-567273,205,-4.0940441655,3.51101528866786,-0.8833963035000003,2595.9646312434675,3.2852,13.743571,13.743571,0.0,1.0,1
3137,ZnCl2,mp-567279,137,-2.796205115,2.7483743705839982,-1.5403899271733332,164.72019626313195,3.882800000000002,3.715615,11.931236,2.0,1.0,1
3138,CdI2,mp-567296,164,-1.9085605266666663,5.064589741984892,-0.5849221966666668,360.22020439087447,2.3808,4.3323704515512045,22.160844,2.0,1.0,-1
3139,Te,mp-567313,154,-3.1432769,6.0612779692512415,2.402999999991569e-05,104.87134197097436,0.5789,4.506739715725881,5.962127,1.0,1.0,-1
3140,TlSbSe2,mp-567318,11,-3.701429750625,6.796826248978428,-0.33081045679687504,473.047855521173,0.8407,4.152431,13.025252131047061,2.0,1.0,-1
3141,TiCl3,mp-567330,163,-4.94311933125,2.521871748958713,-2.0288580945283337,406.2035243325839,0.0,6.112565620413249,12.553533,2.0,1.0,-1
3142,Ag(BCl)6,mp-567334,205,-4.824103894903846,2.5542854862403708,-0.9447183188443588,2004.6574742090008,2.6955,12.608983,12.608983,0.0,1.0,-1
3143,Ga(SbBr)4,mp-567352,33,-3.3448136694444446,4.258348578292321,-0.4457240447222222,2733.9454060971757,2.0175,10.399435,18.888247,0.0,1.0,-1
3144,TiCl3,mp-567354,162,-4.94281746875,2.4717727429226386,-2.028556232028334,207.2183203886612,0.0,6.138476730474181,6.350038,2.0,1.0,-1
3145,BP(IBr)3,mp-567433,62,-3.015357110625,3.3740714763941937,-0.3184202234672622,1303.61892876206,1.9337,7.964903,13.639435999999998,0.0,1.0,-1
3146,Pd(Se4Cl)2,mp-567437,61,-3.5202991115909086,3.927865214831496,-0.2789467857063638,1368.0571960984973,1.3419,9.215110000000001,14.468399,2.0,1.0,-1
3147,HfIN,mp-567441,166,-8.01794992,7.387807664148427,-1.540058702459999,143.58200560000182,1.2242000000000006,12.234173847446339,12.234174086452752,2.0,1.0,-1
3148,HgI2,mp-567471,141,-1.4260681741666668,5.4344471393489036,-0.3088329758333335,1110.762029466764,1.5319,14.721972621351087,14.721972621351087,2.0,1.0,-1
3149,PtCl2,mp-567484,58,-3.5840830866666664,5.12692445944772,-0.7245465321733331,172.30087543459263,1.3506,3.45126,11.386837,1.0,1.0,-1
3150,PbI2,mp-567503,186,-2.92177061,5.134591412308309,-0.6682131766666668,298.18277383738547,2.4543,4.661863434495695,15.842831,2.0,1.0,-1
3151,CrCl3,mp-567504,148,-4.93335385625,2.461543955671448,-1.5797037561950005,213.65032246488738,0.17669999999999994,7.5984853627652,7.598485718533268,2.0,1.0,-1
3152,Te2Au,mp-567525,12,-3.25895894,9.349466095623004,-0.07213113999999976,80.30835608746621,0.0,4.22850989249842,5.157011109378474,2.0,1.0,-1
3153,TaI4,mp-567537,2,-4.0455407105,5.003483898755189,-0.4547750925000002,914.075366316324,0.5979000000000001,7.6486100000000015,11.269417011299346,0.0,1.0,-1
3154,CdSb2Se3Br2,mp-567556,12,-3.357371444375,5.114825926524519,-0.4895614752539066,488.6787037206649,1.1505999999999998,11.065205425606614,12.773380688919673,2.0,1.0,-1
3155,Hf2Te,mp-567584,12,-8.181481583333333,11.102903817600195,-0.4955887066666674,289.89317897809184,0.0,7.84691763408034,10.128458937672061,2.0,1.0,-1
3156,GeBr4,mp-567604,14,-2.8679537785000004,2.9352537907664003,-0.6338069755,887.6321552259086,3.0755,7.223591000000001,11.397076395510954,0.0,1.0,1
3157,TlCoCl3,mp-567620,61,-3.75886998,4.876319543464816,-1.1125652389560003,1007.0883926954808,0.0,5.8892809999999995,14.016409,1.0,1.0,-1
3158,CrBr2,mp-567624,12,-4.957866226666667,3.966491849639077,-0.6488993766666665,88.6700378693722,0.0,4.1683699850884155,6.5066707490332565,2.0,1.0,-1
3159,CrI2,mp-567687,36,-4.529940866666666,4.361270116912747,-0.29624996666666625,232.8685002627801,0.0,4.48004715131995,14.657472,1.0,1.0,-1
3160,Nb3TeI7,mp-567713,156,-4.55171179,5.727549050157332,-0.541229575909091,375.3468713718713,0.4801000000000002,7.245336,7.734314515418804,2.0,1.0,-1
3161,AlTlCl4,mp-567716,62,-3.6789885575,3.2681737905018187,-1.8252164380066664,758.435455356165,4.7734999999999985,7.211595,11.096319,0.0,1.0,1
3162,TaSe2,mp-567724,166,-7.0720234966666675,7.366047116944069,-0.7888233015624996,76.39149522428902,0.0,7.467869604351495,7.467869734493028,2.0,1.0,-1
3163,Nb3Se10Br3,mp-567731,11,-5.03419504984375,4.319642414313509,-0.6483319550585938,2011.3116781167828,1.2232,8.02314,19.578059,1.0,1.0,-1
3164,AlAs3(SeCl)4,mp-567734,15,-3.9295967329166666,2.895895612638831,-0.8694316610345835,1627.1078969632047,2.4318,12.519789176331404,14.488579614287973,0.0,1.0,-1
3165,PC2N3Cl4,mp-567741,63,-5.7959266785,1.7487794230349305,-0.5219599053751424,453.55291067167633,3.7519,7.604337377047128,9.078725,0.0,1.0,1
3166,AlSb2(TeCl2)2,mp-567743,2,-3.717216388333333,3.6193566224073535,-1.1277070464488892,2450.00959887164,0.7508999999999997,9.85488,18.56542872468636,1.0,1.0,-1
3167,InI3,mp-567789,14,-2.329517719375,3.895564780597249,-0.4985873256250002,844.9088246518406,2.3375000000000004,6.650672999999999,12.91039665273488,0.0,1.0,-1