,pretty_formula,task_id,spacegroup.number,final_energy_per_atom,density,formation_energy_per_atom,volume,band_gap,min_abc,max_abc,Dimension,Dim,is_uv
0,Hf2S,mp-10000,194,-9.04516013,11.035293578624938,-1.2493709410416671,117.08332298775065,0.0,3.386678708029594,11.787358,2.0,1.0,-1
1,GaTe,mp-10009,194,-3.44979083,4.8047225174667245,-0.36409261375,272.7837447823904,0.8979999999999997,4.1345994505180315,18.42557,2.0,1.0,-1
2,TaS2,mp-10014,160,-7.758445766666667,6.1614961778250255,-1.4905266454166677,66.04911897278203,0.0,7.089252917842613,7.089253225123575,2.0,1.0,-1
3,NbS2,mp-10033,194,-7.138574028333332,4.019532989371367,-1.456145770416666,129.74892583639428,0.0,3.3627536616631613,13.248997,2.0,1.0,-1
4,CsB3PbF12,mp-1004528,8,-5.614997878235294,3.0684580338604057,-3.1624786805712377,324.9794296634078,6.3125,6.865335959528927,6.8918475306379925,2.0,1.0,1
5,CCl4,mp-1004532,15,-3.4756479072500004,1.693441827675247,-0.6272109858579998,2413.343981522352,4.513,12.08710916096256,20.73555927963808,0.0,1.0,1
6,Tl3Bi,mp-1006059,194,-2.78039636625,10.517436213013116,-0.03664805375000002,259.6030921103102,0.0,5.389167,7.45811023883356,1.0,1.0,-1
7,P2S7,mp-1006118,2,-4.538038977222223,1.941182983062771,-0.6338722226686515,489.9925293229972,2.0233,6.413214,11.673017323160026,1.0,1.0,-1
8,Mg(InSe2)2,mp-1006591,2,-3.738462426071429,4.7215878602033605,-0.7259919374107139,801.546969299149,0.7989999999999999,7.16965,13.693734212820619,2.0,1.0,-1
9,CuI,mp-1007922,63,-2.912310585,5.259605739147027,-0.10070094250000006,120.25633150922032,0.9594000000000004,4.357385,5.253576580384167,1.0,1.0,-1
10,SnPOF7,mp-1008228,61,-5.1437947123750005,2.8188913325406224,-2.7825573001901427,1407.5221487822253,4.4455,10.057369,12.486725999999999,0.0,1.0,1
11,Cl2,mp-1008394,64,-1.8485262325,1.6735675643069048,0.0,140.7080127118759,2.2818,4.3892277066268734,8.601525,0.0,1.0,-1
12,BrCl,mp-1008492,63,-1.794627915,2.5271615889277146,-0.34923915662999994,151.5968000978154,1.8278,4.645947050138755,7.810701,1.0,1.0,-1
13,VTe2,mp-1008626,164,-5.431472726666668,6.31608048509934,-0.3079700833333341,80.48661220464616,0.0,3.655838363626324,6.95375,2.0,1.0,-1
14,V2C,mp-1008632,164,-9.585351633333334,5.757330550495262,-0.4538206866666658,32.849414608190465,0.0,2.893003170997225,4.532096,2.0,1.0,-1
15,Hf2Tl,mp-1009238,139,-7.39523525,13.735758015746038,0.03010830999999925,67.86416076469197,0.0,5.968394181116726,5.968394181116726,2.0,1.0,-1
16,O2,mp-1009490,12,-4.946243415,1.1409697618155776,0.0017120537500003865,46.57025914496467,1.6300999999999997,3.3426660501804544,4.625978470218491,0.0,1.0,-1
17,CrSe2,mp-1009581,164,-6.002180713333334,5.516334782192133,-0.4538905715624999,63.18939994062372,0.0,3.519891228737189,5.889183,2.0,1.0,-1
18,CoTe2,mp-1009641,164,-4.67163488,7.559601913713964,-0.2066616616666668,69.00236922093474,0.0,3.7852077517901184,5.561013,2.0,1.0,-1
19,PbS,mp-1012435,186,-4.40111751,6.9733424475740655,-0.8082990415625,113.9507726049701,0.7835000000000001,4.1501461165545726,7.639411,2.0,1.0,-1
20,VS2,mp-1013525,194,-6.636547675,3.0236853435834594,-1.2932524070833342,126.3892895520712,0.0,3.180255578645842,14.429642000000001,2.0,1.0,-1
21,VS2,mp-1013526,166,-6.6333908999999975,3.3643343346397767,-1.2900956320833334,56.79599653187296,0.0,6.689183702477979,6.689184059641727,2.0,1.0,-1
22,Sn4SF6,mp-1013750,36,-4.762094389545454,4.248491913317467,-2.213496381387728,485.3586264917723,2.4505000000000003,7.6381223589115805,8.895499000000003,2.0,1.0,-1
23,TiSCl,mp-1013900,59,-6.120934281666668,3.041376562767094,-1.9134899949061115,125.99643368417291,0.0,3.4390519999999998,7.5786419999999985,2.0,1.0,-1
24,Hf2Zn,mp-1014231,139,-7.23574785,11.755995457951894,-0.17770741333333362,59.66261541277445,0.0,6.0838171717085645,6.0838171717085645,2.0,1.0,-1
25,Re2O7,mp-1016092,19,-8.10618098486111,5.837607744971918,-2.038546245833334,1102.3438809662773,2.6752,5.558364,15.566044,2.0,1.0,-1
26,In2Se3,mp-1017565,164,-3.665643204,5.659133897523633,-0.4674228254062498,136.88809228086134,0.15249999999999986,4.018419304516267,9.788688,2.0,1.0,-1
27,TiMo3,mp-1017983,71,-10.25536149,8.788249859161299,-0.14725621333333372,63.42803022022309,0.0,5.2555336932167975,5.2555336932167975,2.0,1.0,-1
28,Zr2Zn,mp-1018105,139,-6.295972253333333,6.643400169254138,-0.17759062999999978,61.95264788279107,0.0,6.135702894345684,6.135702894345684,2.0,1.0,-1
29,ZrTe2,mp-1018107,164,-5.825515786666667,5.981655114979786,-0.8807482900000009,96.16913288217592,0.0,3.984199641675101,6.995566,2.0,1.0,-1
30,PbS,mp-1018115,63,-4.41906752,7.175374538319918,-0.8262490515624998,110.74233899519258,1.2720000000000002,4.303227,6.480004719490642,2.0,1.0,-1
31,Ti2Rh,mp-1018124,139,-8.339892733333334,7.088660567074918,-0.6214620988888898,46.53187253060987,0.0,5.387758414419952,5.387758414419952,2.0,1.0,-1
32,Ti2Re,mp-1018125,164,-9.729218153333333,9.8674381020313,-0.3173810805555561,47.4463624838845,0.0,2.8396049999999997,4.3924533513863295,2.0,1.0,-1
33,VI2,mp-1018138,164,-4.53247448,4.8368827980523665,-0.4884973800000001,104.62316998611313,1.1073000000000004,4.112688618481224,7.142424,2.0,1.0,-1
34,NbTe2,mp-1018150,164,-5.88774414,6.803527397989204,-0.4251085066666664,84.96243338323984,0.0,3.6930324079076255,7.1933320000000025,2.0,1.0,-1
35,Hf2Hg,mp-1018154,139,-6.8582103466666675,14.046197038518438,-0.11885765833333295,65.91583222314105,0.0,6.261688056209363,6.261688056209363,2.0,1.0,-1
36,Ba2Zn,mp-1018178,139,-1.8421880566666669,4.272596092426538,-0.1429596333333336,132.16505477925773,0.0,8.115004408957152,8.115004408957152,2.0,1.0,-1
37,CaCoSi,mp-1018658,129,-5.378849623333332,3.7979712574730553,-0.5324390583333329,111.13776960158691,0.0,3.9492519999999995,7.125773,2.0,1.0,-1
38,HgSe,mp-1018722,154,-2.0721825516666668,7.782781726496693,-0.17238663033854176,178.93487664736983,1.0508000000000002,4.558765856318791,9.941908999999999,1.0,1.0,-1
39,LiBeB,mp-1018783,11,-4.231935205,1.4197151809535502,-0.1226927041666664,62.608289877892894,0.0,3.001252,5.693867750880767,2.0,1.0,-1
40,MoSeS,mp-1018806,38,-6.9152368750000015,3.8404981799630287,-0.9770554168229176,178.9733788766838,0.8390000000000001,3.2563588438114435,19.490903,2.0,1.0,-1
41,MoSe2,mp-1018807,194,-6.616389411666668,6.155754951852687,-0.6705674165625007,136.95946337831543,1.3035999999999994,3.3287360532676664,14.272587,2.0,1.0,-1
42,MoS2,mp-1018809,194,-7.237796761666666,4.306155808586161,-1.3072558404166668,123.45233205945364,1.3361,3.1929179132237326,13.982768,2.0,1.0,-1
43,PdCl2,mp-1018888,10,-3.40973315,3.3228003236394064,-0.8472052288399997,177.23409283973956,1.0151,3.420218,11.875227667934327,1.0,1.0,-1
44,PdCl2,mp-1018891,14,-3.4263222966666667,3.841986559922636,-0.8637943755066665,153.28359218926624,0.7937,4.280042,6.466780726581426,2.0,1.0,-1
45,Re2N,mp-1018948,194,-11.03801546,18.259046829748964,-0.09083994079333264,70.28479355751129,0.0,2.867253304492821,9.87185,2.0,1.0,-1
46,PdN2,mp-1019239,71,-6.947546413333334,4.000664197037069,0.08072898174666676,55.79871280403693,0.0,4.745114346908513,4.745114346908513,1.0,1.0,-1
47,TaSe2,mp-1019276,194,-7.093129978333334,7.620670727377046,-0.8099297832291666,147.67816988455485,0.0,3.4757018025597364,14.115642000000001,2.0,1.0,-1
48,Tc2N,mp-1019316,194,-9.791533278333334,10.179621045174732,-0.2336292757933336,68.51420658002704,0.0,2.8493665709881912,9.744361999999999,2.0,1.0,-1
49,Te2W,mp-1019322,194,-6.496575101666667,8.823015834196518,-0.08166565833333313,165.2593819393174,1.1671000000000005,3.552879708497883,15.117308,2.0,1.0,-1
50,B2S2O9,mp-1019509,5,-6.702810155384616,2.568795527668781,-2.2015984250641023,148.51443044388324,6.6984,4.476392519422308,8.865185855563155,2.0,1.0,1
51,Y(NO3)3,mp-1020671,14,-6.8243249901923075,2.635770932638115,-1.5524113828889743,692.8011957840909,3.2704000000000004,6.229126,11.267703084342699,2.0,1.0,1
52,LiC12,mp-1021323,191,-8.670166768461538,2.019463894233663,-0.006298209487177622,124.21942337474468,0.0,4.29791561952768,7.7650289999999975,2.0,1.0,-1
53,H4C,mp-1021328,217,-4.814292834,0.4330682613662343,-0.3771473648959997,61.512546475530854,7.6375,4.307201594433212,4.307201594433212,0.0,1.0,1
54,NbSe2,mp-10228,164,-6.50778407,5.868051838288191,-0.8100747382291663,70.97875315385062,0.0,3.487511144364273,6.73855,2.0,1.0,-1
55,SiS,mp-1023900,53,-5.20089078125,0.6288316745264756,-0.7517388378125007,635.3512977903785,0.4874999999999998,3.9854300000000014,23.99833,1.0,1.0,-1
56,MoS2,mp-1023924,187,-7.236762006666668,1.729127580420431,-1.3062210854166676,153.7205764342924,1.6606999999999998,3.1903153919636225,17.439501999999994,2.0,1.0,-1
57,WS2,mp-1023925,164,-7.894454168333334,3.8593008011159373,-1.2597521004166683,213.38780963937214,1.6969999999999998,3.190731161109002,24.202402,2.0,1.0,-1
58,Te2W,mp-1023926,187,-6.492265323333334,3.8042057269551055,-0.07735588000000011,191.64133701664744,1.4108,3.5543496588369017,17.516133,2.0,1.0,-1
59,Te2MoWSe2,mp-1023927,156,-6.566540791666667,4.615540662390488,-0.3861750724479171,249.2855341136192,1.0386000000000002,3.434045936118211,24.409239000000003,2.0,1.0,-1
60,MoWSe4,mp-1023928,156,-7.0374250883333325,4.379170905782481,-0.7395225198958334,225.8533179288113,1.2829000000000002,3.3228768403688997,23.619322,2.0,1.0,-1
61,WSeS,mp-1023929,156,-7.536897121666668,4.636441761431047,-0.8945545168229169,211.21147512133626,0.8086000000000001,3.2547184588596907,23.022902,2.0,1.0,-1
62,MoW(SeS)2,mp-1023930,156,-7.209056068333332,3.9397431506222063,-0.9187940368229164,211.5133621490713,0.5892,3.2574087980505304,23.017742000000002,2.0,1.0,-1
63,TeWS,mp-1023931,156,-7.111911776666666,4.868999127645586,-0.5871060210416665,234.3000921210896,0.0,3.3596731058858977,23.968878,2.0,1.0,-1
64,Te2MoWS2,mp-1023932,156,-6.859130499999999,4.2657691278924705,-0.6864053177083337,233.2159876364981,0.0,3.358265420918662,23.877981,2.0,1.0,-1
65,MoSe2,mp-1023934,187,-6.617718553333333,2.4809439300963136,-0.6718965582291668,169.9129280324812,1.4311,3.3269484459426177,17.725711999999994,2.0,1.0,-1
66,Te2Mo,mp-1023935,187,-5.9827004566666675,3.0081206763588058,-0.2719521600000003,193.8358698267777,1.2682,3.5587106367870085,17.673323,2.0,1.0,-1
67,WSe2,mp-1023936,187,-7.206082103333332,3.380545359692427,-0.5560989615624999,167.87404723741068,1.5378,3.3256124545504395,17.527085,2.0,1.0,-1
68,WS2,mp-1023937,187,-7.893558746666668,2.7309312361995106,-1.258856678750001,150.77782511940194,1.8091,3.1907306611089887,17.101201,2.0,1.0,-1
69,MoS2,mp-1023939,164,-7.237950478333333,2.424142372982236,-1.3074095570833333,219.29610352354482,1.5539,3.1903153919636225,24.879004000000002,2.0,1.0,-1
70,TeWSe,mp-1023943,156,-6.820523523333333,5.178042236733031,-0.2880772307812502,250.39365148541316,0.8321999999999998,3.4371045374128504,24.474129,2.0,1.0,-1
71,TeMoSe,mp-1023948,156,-6.273582045,4.026683951625759,-0.4452968991145833,249.49217454411487,0.6357999999999999,3.438566425574036,24.365285,2.0,1.0,-1
72,MoSeS,mp-1023953,156,-6.915167635,3.256776961693817,-0.9769861768229168,211.0512767445566,0.6802999999999999,3.25609029703938,22.986058,2.0,1.0,-1
73,MoWS4,mp-1023954,156,-7.565229556666666,3.4403789618179133,-1.282608062083333,196.94526918553024,1.3369,3.1884099500473586,22.370032000000002,2.0,1.0,-1
74,MoW(SeS)2,mp-1023955,156,-7.242974593333333,3.952641208209249,-0.952712561822916,210.8231625124937,1.0134,3.2534160822042115,22.998975,2.0,1.0,-1
75,TeMoS,mp-1023959,156,-6.534571386666666,3.6369370449394585,-0.7139267777083328,233.40634323537395,0.0,3.360238458333724,23.86942,2.0,1.0,-1
76,Zr63S128,mp-1024087,164,-7.062464681937173,3.4598853821183444,-1.915617338219896,4728.101047075041,0.0,14.720807319121786,25.19371286454802,2.0,1.0,-1
77,ZrHCl,mp-1024958,164,-5.620449268333334,4.3405667543924285,-1.2733531789600008,97.69499841094154,0.0,3.3591887412417,9.997075,2.0,1.0,-1
78,CdIBr,mp-1025115,160,-2.076793025,4.854189250576384,-0.7155167200000001,218.3995610354111,2.2325,14.369878495543134,14.369879295441036,2.0,1.0,-1
79,RuF6,mp-1025168,229,-4.4701378557142855,2.830918955006563,-1.9276106474485712,126.14851694337702,0.0,5.472275962449262,5.4722765397995925,0.0,1.0,-1
80,RhF6,mp-1025250,229,-3.9031570785714287,2.6789465932858842,-1.6334986967342855,134.44245141742627,0.8822999999999999,5.589669170033858,5.589669170033858,0.0,1.0,-1
81,Mn(AlS2)2,mp-1025314,160,-5.573701854285715,2.752463127644856,-1.2101564831650249,143.07741474770071,0.0,12.470603646462749,12.470603755851958,2.0,1.0,-1
82,Tl2CuF4,mp-1025338,139,-4.031152777142856,7.4523268812089025,-1.9590508963942856,122.17444314066314,0.0,7.529127860412054,7.529127860412054,2.0,1.0,-1
83,Cu2WSe4,mp-1025340,121,-5.352428934285714,5.804238200474862,-0.33240240276785776,179.31369387387744,1.4152999999999998,6.9463458025401374,6.9463458025401374,2.0,1.0,-1
84,TcF6,mp-1025373,229,-5.024222698571426,2.735866659953804,-2.3265197395914283,128.66795665855102,0.0,5.508467164073414,5.508467164073414,0.0,1.0,-1
85,ReF6,mp-1025374,229,-5.4982779342857135,3.725247730195509,-2.50287393602,133.81379665935268,0.0,5.580943098065326,5.580943098065326,0.0,1.0,-1
86,SrCu,mp-1025402,194,-2.99994808625,4.000956388487638,-0.105604124583333,250.95704543436932,0.0,4.343767622286556,15.358032000000001,2.0,1.0,-1
87,IrI3,mp-1025442,12,-3.50932165125,6.3451705815349815,-0.1567045850000004,299.87320782730023,1.3977000000000004,6.9526130563708195,7.472615508240002,2.0,1.0,-1
88,HfTe3,mp-1025459,11,-5.4547899775,7.631486817172768,-0.6080170674999996,244.26274853664955,0.0,4.0030480000000015,10.565125874746832,2.0,1.0,-1
89,NbCl2O,mp-1025567,5,-6.4432430075,3.2562050475209245,-2.2295748919425,183.3941542177809,0.9322,6.768331418061619,7.324903109339397,2.0,1.0,-1
90,NiTe,mp-10264,166,-4.6524429075,7.171055075228673,-0.19072410249999994,86.27669577335544,0.0,7.0581178945608425,7.058117942278522,2.0,1.0,-1
91,Na2HfN2,mp-1029309,164,-6.605423434,4.920092051008916,-0.9071359022853328,85.21340226609672,0.0,3.310813972975528,8.976514,2.0,1.0,-1
92,NaRuN,mp-1029313,186,-6.269998896666666,5.067955908196289,-0.08949421023777641,90.47622756787763,0.4636999999999993,3.2296697697753864,10.015845,2.0,1.0,-1
93,Na2ZrN2,mp-1029316,164,-6.2300438300000005,3.1631042321503933,-0.8136539422853339,86.73415758936892,0.0,3.3572860313762365,8.88552,2.0,1.0,-1
94,Ca(InN)2,mp-1029479,166,-5.1252496,6.0883503842659925,-0.44246725695199984,81.2022875974553,0.5477999999999996,8.132558980317143,8.132559176014645,2.0,1.0,-1
95,Cs2CN2,mp-1029699,2,-5.971697360666669,3.4693313896025906,-0.5871913967910795,439.1488572688642,2.2801,5.8669400000000005,12.985055966703491,1.0,1.0,-1
96,Zn(ReO4)2,mp-10326,147,-7.5778749763636375,4.777768993269658,-2.1129548190909087,196.65312973834327,4.0065,5.811486424579687,6.7235059999999995,2.0,1.0,1
97,MgBi2,mp-1038896,12,-3.141869041666667,8.205855847321613,-0.015086151666666938,178.99403849771744,0.0,6.894823625945264,7.9299887612299935,2.0,1.0,-1
98,Ca2Mg,mp-1039317,63,-1.9009197366666664,1.6596493535433332,-0.03042646666666648,209.03399994193242,0.0,5.916778,9.632756023010495,2.0,1.0,-1
99,Ca2Mg,mp-1039397,12,-1.88837373,1.6381250861982382,-0.017880459999999758,211.78061785095105,0.0,7.243748170327567,8.331317349852062,2.0,1.0,-1
100,Ca2Mg,mp-1039421,63,-1.8346391766666663,1.617372320756599,0.035854093333333566,214.49800915964488,0.0,6.010665,9.635474876578217,2.0,1.0,-1
101,Ca2Mg,mp-1039467,12,-1.9101002916666667,1.6497980777513097,-0.03960702166666656,210.28218395372642,0.0,7.312163607449713,8.139580288592896,2.0,1.0,-1
102,Tl2SnF6,mp-10401,164,-4.487843493333333,6.4804735364534585,-2.5704903135711112,164.36777950334618,4.4844,4.96526,6.182612819483037,0.0,1.0,1
103,TiTl2F6,mp-10402,164,-5.426557578888889,6.057885964760943,-3.0774354922748146,156.41487504614997,3.9155,4.951724,6.0394234732613326,0.0,1.0,1
104,C,mp-1040425,191,-9.219185055,0.37811414066880783,0.007595645000000317,105.4932065324787,0.00010000000000021103,2.4680302794645765,19.998293,2.0,1.0,-1
105,Si3H,mp-1040468,166,-4.8691053225,1.9414625580933305,0.0098143578449994,145.8538904307475,0.9481000000000002,11.429072575975225,11.42907292216254,2.0,1.0,-1
106,Mn(SbS2)2,mp-10412,12,-5.195149134285714,4.112836594908207,-0.722053646022167,344.5709392018729,0.6915000000000004,6.621774949469741,15.5027889181854,2.0,1.0,-1
107,CrSe2,mp-1061769,12,-5.986795253333334,2.8707087230694768,-0.4385051115625001,121.42433049968338,0.0,3.4512682655634,11.792887964464006,2.0,1.0,-1
108,TiS2,mp-1062030,12,-6.658735466666666,1.6281554894906718,-1.7115782165277775,114.22459036770374,0.04970000000000002,3.4200757805303086,11.327305589918993,2.0,1.0,-1
109,CoO2,mp-1062939,166,-5.7364124133333325,4.2237988842574685,-1.161196169166666,142.99556796054273,1.1238,4.906542654330033,5.676796384363808,2.0,1.0,-1
110,PbSe,mp-1063670,63,-4.11348064,7.9527456205155875,-0.5092013661718746,119.50083203276138,0.9241,4.4971309999999995,6.502503008554244,2.0,1.0,-1
111,SnS,mp-1064497,2,-4.4593905425,2.715190006199353,-0.7181096815625008,184.42007903312282,1.4941,4.105180000000002,11.041095025696723,2.0,1.0,-1
112,ZrBr,mp-1065846,12,-6.0962647375,5.386349173186648,-1.0039511525000009,105.51292545373863,0.0066000000000006045,3.5286215475522447,10.113478291844256,2.0,1.0,-1
113,YI,mp-1065933,164,-4.857251745,4.773036068056478,-0.8620098808333334,150.1608042452391,0.0,3.955973150679615,11.079476,2.0,1.0,-1
114,BrCl,mp-1066781,36,-1.7953046475,2.4190804716382606,-0.34991588913000005,158.36993217183095,1.8328,4.746631664881635,7.821122999999999,1.0,1.0,-1
115,ZrBr,mp-1066783,164,-6.0302092475,5.4892915499067305,-0.9378956625000008,103.53420903429807,0.0,3.4513376665398883,10.036408,2.0,1.0,-1
116,H2,mp-1066989,65,-3.340260065,0.2170027119837974,4.440892098500626e-16,15.425832529814405,6.4533000000000005,2.607236440224783,2.6089580000000003,0.0,1.0,1
117,PbS,mp-1067627,12,-4.39858281,2.651186294135805,-0.8057643415625,299.72158550220473,2.0879,4.244495412434794,16.686755528784047,2.0,1.0,-1
118,Bi,mp-1067758,11,-3.804174895,9.895899999797473,0.08585941499999983,140.26823971980178,0.0,4.577571,6.812139182934241,2.0,1.0,-1
119,F2,mp-1067793,15,-1.6342449275,2.697421839272925,0.0,46.781842212891576,0.0,3.0974860667969115,5.529072070118097,1.0,1.0,-1
120,PbS,mp-1067933,12,-4.3995307775,3.9168525170193615,-0.8067123090625001,202.87150360840863,2.2622,4.245334763957725,11.312144976437759,2.0,1.0,-1
121,ZrCl,mp-1067974,164,-6.4225544225,4.470560799827823,-1.5217786191300011,94.10546763967042,0.0,3.361667231758224,9.615563,2.0,1.0,-1
122,In2Te3,mp-1068510,166,-3.215390572,6.344848636998901,-0.2287365219999998,160.28339870267789,0.0,10.105803403361113,10.105803535608636,2.0,1.0,-1
123,GeS2,mp-1071032,137,-4.572270873333333,3.1621417443732787,-0.7159350104166666,143.64436922728424,1.604,3.53275,11.509668,2.0,1.0,-1
124,CsMnAs,mp-1071293,129,-5.104931028333334,4.772657084539082,-0.1995219458620697,182.84645262064672,0.0,4.499593,9.031088,2.0,1.0,-1
125,AlPS4,mp-1071955,23,-4.873079885,1.70984775351459,-1.031276358511904,180.8452131538411,2.7826000000000004,6.609985858626553,6.609985858626553,1.0,1.0,-1
126,TiNF,mp-1071956,59,-8.236234923333333,2.8110962917939206,-2.480063477301112,95.54371164995415,0.6581,3.062004,7.870825999999999,2.0,1.0,-1
127,TaS2,mp-1072086,194,-7.756305505,4.7490320730269815,-1.4883863837500009,171.38709018661737,0.0,3.344623696798341,17.691022,2.0,1.0,-1
128,NbSe2,mp-1072113,194,-6.5369170883333325,5.6985080084390844,-0.8392077565625004,146.18107136360598,0.0,3.488132066031474,13.873137,2.0,1.0,-1
129,NbS2,mp-1072712,194,-7.135410988333334,3.0389349058108723,-1.452982730416667,171.61607730973333,0.0,3.3687221469753186,17.462120000000002,2.0,1.0,-1
130,Ba3N,mp-10736,193,-3.83391573,3.8444986500611233,-0.4065695605949999,367.990358238172,0.0,7.098638,7.736871395662784,1.0,1.0,-1
131,HgO,mp-1077107,154,-2.91844192,9.970012724699668,-0.643769003125,108.22107354600836,1.2835,3.747305833936296,8.899035000000003,1.0,1.0,-1
132,Li2Tl,mp-1077191,63,-2.29595093,6.248510312478503,-0.2361180255555556,116.00782887702593,0.0,4.863936,5.591687136546626,2.0,1.0,-1