,pretty_formula,task_id,spacegroup.number,final_energy_per_atom,density,formation_energy_per_atom,volume,band_gap,min_abc,max_abc,Dimension,Dim,is_uv
4360,SiH8,mp-972825,119,-3.6101769577777776,0.5069510794667371,-0.12759836766222166,118.4075986038872,7.3467,5.489371481523454,5.489371481523454,0.0,1.0,1
4361,SbSI,mp-973217,62,-3.573455406666667,4.345834644846431,-0.5314541660416671,429.0657976448485,1.5291999999999994,4.132573000000002,10.854124,1.0,1.0,-1
4362,LiMg2,mp-973455,12,-1.742861175,1.4629119866582043,-0.039700186111111264,126.1109438297995,0.0,5.731237029420612,7.134949336952642,2.0,1.0,-1
4363,H2,mp-973783,64,-3.389319175,0.15338439812659702,4.440892098500626e-16,43.64782252253278,8.8847,3.4083747067471912,3.7573800000000004,0.0,1.0,1
4364,OsN2,mp-973935,191,-8.998144243333334,10.568466136844435,0.04594869841333349,34.290850444624446,0.0,2.8241888870587255,4.964323,1.0,1.0,-1
4365,RuF4,mp-974434,14,-4.998836436,4.346980368579236,-2.007518397952,135.27599455151594,0.1869,5.055489,5.518453284924137,2.0,1.0,-1
4366,Re2C,mp-974437,194,-11.401687795,18.100971404782648,-0.029742771666666574,70.53237290318232,0.0,2.8660257194885737,9.915113,2.0,1.0,-1
4367,Re2S2O13,mp-974650,32,-7.061489597647059,4.2655347112834585,-1.9421551742647056,501.82573223785795,2.3901000000000003,6.058871,9.789727000000001,2.0,1.0,-1
4368,ReClO3,mp-974724,14,-7.150232689000001,4.090068086037507,-1.8631577754020008,437.9173806496185,3.5923,5.890701,9.445667429477547,0.0,1.0,1
4369,Rb3Hg,mp-974951,221,-0.843029525,2.991588058399916,-0.031708879375,253.6630642536535,0.0,6.330223999999999,6.330223999999999,0.0,1.0,-1
4370,SF6,mp-975,12,-3.9373536180952384,2.3928818312149702,-2.223597808133096,304.06524004626215,5.921,4.9723523762929345,8.382907674132646,0.0,1.0,1
4371,Rb3Cd,mp-975019,221,-0.91186072,2.4347388218027315,0.054262274374999975,251.5385691641383,0.0,6.312501999999999,6.312501999999999,0.0,1.0,-1
4372,Hg,mp-975272,63,-0.302625715,10.589517019025337,0.0010546499999999905,62.90891846547152,0.09339999999999997,3.6065439704555113,5.644127,1.0,1.0,-1
4373,Li2Mg,mp-976982,63,-1.8321014233333333,1.0423865906742342,-0.02605949555555576,121.66504424282516,0.0,5.009274,7.7793977364467635,2.0,1.0,-1
4374,MgPt5,mp-977056,8,-5.65346397,17.605404155582132,-0.3276608699999996,94.29391132894405,0.0,5.412684677033385,6.727402773520996,2.0,1.0,-1
4375,PW4Cl11,mp-977371,63,-5.629296811875,4.6670763690221335,-1.1894122815269652,822.8316851252738,0.5707,8.704364987860746,11.523839,2.0,1.0,-1
4376,Sn5O6,mp-978114,14,-5.908891991363637,5.696556549083402,-1.7705418015909096,402.0038160132467,1.7667000000000002,4.953044,13.755208674731364,2.0,1.0,-1
4377,Na(BH)6,mp-978278,14,-5.077175282115385,1.227698391528994,-0.3979889121194867,508.0409998816438,5.6438,6.856777,10.590845,0.0,1.0,1
4378,Mg3Cu,mp-978279,44,-2.2321934825,2.9668936378844286,-0.0071817775000000425,76.37578195384211,0.0,5.679056295702923,5.679056295702923,2.0,1.0,-1
4379,Si(H3C)4,mp-978526,205,-5.095334669779412,0.998370777193902,-0.31831838998176504,1173.902157649854,6.1296,10.548983999999999,10.548983999999999,0.0,1.0,1
4380,SiAs2,mp-978553,55,-4.98559658625,4.061515016821064,-0.07107964291666669,581.9652148436082,0.8964000000000003,3.693517,15.222156,2.0,1.0,-1
4381,Si(H3C)2,mp-978595,2,-5.094520789583333,1.0725710208228592,-0.28148796866333314,720.2721960253376,3.5359000000000003,9.033571,9.716684016430968,0.0,1.0,1
4382,Sr(GaH)2,mp-978854,164,-3.3114664360000003,4.810730677989001,-0.4664373197813333,79.07310482597812,0.0,4.4151185640372095,4.683962999999999,2.0,1.0,-1
4383,Tl2(IO3)3,mp-978990,2,-4.342596339642856,6.084520060966665,-0.9492868379464282,509.51300745253343,1.9691,7.2188149999999975,10.70029334487901,1.0,1.0,-1
4384,SnH4,mp-978992,11,-3.316692233,3.4915306281156218,0.07701146710400053,116.74964896025641,0.0,4.050112,6.2130412986185775,0.0,1.0,-1
4385,Te6RhCl3,mp-979264,167,-3.5709648769999998,5.233299852562623,-0.5723982389780001,618.6538637180466,1.1951,9.111525093615995,9.111525233102581,1.0,1.0,-1
4386,WSCl4,mp-979414,2,-4.87752753,2.7746179707078027,-1.3031074893608334,428.16925397150976,1.9837,6.988988000000001,8.108622156372252,0.0,1.0,-1
4387,Tl3BiCl6,mp-980659,84,-3.232187736,5.403873159439048,-1.382377824956,635.9905125282313,2.9012,7.688662,9.094942,1.0,1.0,-1
4388,WCl4,mp-980949,12,-4.898300929,4.093235112859161,-1.303594853608,264.22028210282747,0.2754000000000003,7.086166087833532,8.514034991951233,1.0,1.0,-1
4389,TlFeSe2,mp-9810,12,-4.72687888625,6.460626671353585,-0.2710091824218752,214.9486800904721,0.0,6.945047209448902,6.976119337088492,2.0,1.0,-1
4390,WS2,mp-9813,160,-7.8956470933333325,6.557005559612956,-1.2609450254166674,62.79754814926638,1.6176000000000004,7.355479067582274,7.355479147614112,2.0,1.0,-1
4391,TaTl(CuS2)2,mp-9815,40,-5.516761019375,5.3915874215011685,-0.978035592187501,394.6442361152723,1.8723000000000003,7.516307,9.818072301267142,2.0,1.0,-1
4392,GeF4,mp-9816,217,-4.774136682,2.723976096677008,-2.7130910039520004,90.6072270477648,5.6825,4.900739033120106,4.900739033120106,0.0,1.0,1
4393,Rb3Cd,mp-982205,139,-0.897214385,2.4151268548696314,0.06890860937499999,253.5811807523866,0.0,7.783570958833869,7.783570958833869,0.0,1.0,-1
4394,H3F2,mp-983357,1,-4.001400184,1.4076976487377433,-1.4893381336479998,96.77696447768028,7.9086,4.523586,5.25883163350777,0.0,1.0,1
4395,K3Hg,mp-983365,139,-0.9650776725,2.563621099234036,-0.056358371000000074,205.90417799648688,0.0,7.257777114117725,7.257777114117725,0.0,1.0,-1
4396,BN,mp-984,194,-8.7888233775,1.9562409487548509,-1.4728913982733332,42.13260173230655,4.4938,2.5124284562400976,7.707265,2.0,1.0,1
4397,Hf(TlTe)4,mp-984696,148,-4.0397884444444445,8.08066500122917,-0.4867879455555556,928.6888792143021,1.1624999999999996,9.874519713955966,9.874520300104962,1.0,1.0,-1
4398,Cr(GaS2)2,mp-985304,164,-5.212218264285714,3.7035898773490974,-0.9834757010714292,143.3414185439031,0.0,3.7001281340138745,12.089478,2.0,1.0,-1
4399,AlTlS2,mp-985477,15,-4.484765790625,4.7847925438733405,-1.2214636546874995,820.4004148138057,2.1197000000000004,7.363102987874745,15.356295221146569,2.0,1.0,-1
4400,H2C,mp-985782,62,-5.5052453425,1.025447100436641,-0.2698273349133332,90.85474638671269,6.43,2.5630759999999997,7.1788289999999995,0.0,1.0,1
4401,HfS2,mp-985829,164,-7.653718696666666,5.3225469425575875,-2.01932916875,75.69308315858652,1.2325,3.643365557214648,6.5844580000000015,2.0,1.0,-1
4402,HfSe2,mp-985831,164,-6.995010503333333,6.538055538143464,-1.3453399015624992,85.4416032619893,0.5549,3.7735417971356835,6.9285190000000005,2.0,1.0,-1
4403,GaS,mp-9889,166,-4.2278834225,3.392026074169878,-0.9773407378125,99.65899248132715,1.9484,8.949453913218672,8.949454532372908,2.0,1.0,-1
4404,SbBrO,mp-989189,129,-4.585864541666667,5.6032263648822855,-1.248666792083333,129.01087892299554,1.6685000000000003,3.835336,8.770402,2.0,1.0,-1
4405,ScBrO,mp-989190,129,-7.0225826866666665,4.13041542553273,-2.95089564875,113.25853037662912,3.3609,3.6355760000000004,8.568888000000001,2.0,1.0,1
4406,SnClF,mp-989192,129,-4.19596976,4.749491031713358,-1.9679787714833328,121.08298464862871,2.7498,4.054978,7.363869999999999,2.0,1.0,-1
4407,SnBrF,mp-989193,129,-4.008466276666667,5.426722674146268,-1.65278343373,133.17573739740033,2.18,4.106257,7.898286,2.0,1.0,-1
4408,SnBrCl,mp-989194,129,-3.311337968333333,3.6751581909009614,-1.0112215110866671,211.51600965866348,1.3078,5.734654,6.073206,2.0,1.0,-1
4409,ScClO,mp-989195,129,-7.2213779083333325,3.1551645155049197,-3.2773827248366665,101.4779214422944,3.9387,3.5713699999999995,7.95613,2.0,1.0,1
4410,SbClO,mp-989196,129,-4.769096348333333,5.0556657594127365,-1.5595904531699991,113.78361256736102,1.9191000000000005,3.791072,7.916908999999999,2.0,1.0,-1
4411,HfTeSe4,mp-989651,10,-5.1736140766666665,5.884793343071308,-0.6595914615624997,175.49283406977642,0.9563,3.8667839999999996,6.848738435662148,2.0,1.0,-1
4412,Te3As2,mp-9897,166,-3.75512303,6.045190459818003,-0.005495109999999671,146.31050056038518,0.2793999999999999,10.374315321685813,10.374315547250381,2.0,1.0,-1
4413,C,mp-990448,191,-9.21952875,0.7559985807980227,0.007251950000000562,52.76262964980629,9.9999999999989e-05,2.468416031949436,9.999058,2.0,1.0,-1
4414,TiS3,mp-9920,11,-6.04141354375,2.9409059312397394,-1.4627981394270844,162.68495804058966,0.23240000000000016,3.4156169999999997,9.517813845616283,2.0,1.0,-1
4415,ZrS3,mp-9921,11,-6.4374569575,3.3773767276362507,-1.6957893998437503,184.2948515494265,1.0947999999999998,3.658647,9.75054511382338,2.0,1.0,-1
4416,HfS3,mp-9922,11,-6.787881415,5.091838099042706,-1.6938418023437496,179.15933878368008,1.1361,3.611567,9.706027935545672,2.0,1.0,-1
4417,NbS2,mp-995122,164,-7.1013212333333335,4.1843836015175375,-1.4188929754166668,62.3186277120654,0.0,3.3766444472706927,6.311268,2.0,1.0,-1
4418,PbBrCl,mp-995147,129,-3.3857439116666668,6.128667435404393,-1.1846023827533332,174.7911778051811,3.2852,4.703055,7.902407000000001,2.0,1.0,1
4419,Si3H,mp-995193,164,-4.88155297125,1.939858891153836,-0.002633290904999973,145.97446675882333,0.9321000000000002,3.861817073229648,11.302199,2.0,1.0,-1
4420,HC6,mp-995202,2,-8.35463832857143,1.8498845407708675,0.016850365911429726,131.18563940158248,0.0,2.46457,14.296846474583548,1.0,1.0,-1
4421,LiS4,mp-995393,1,-3.9167505360000003,0.22277547787999635,-0.7565740691666661,2015.540888789589,2.1585,12.210871000000001,12.929439069616516,0.0,1.0,-1
4422,AgNO2,mp-996960,5,-5.42361380125,3.945509421071105,-0.604524019136667,129.52106453362518,1.4771,4.621954126186239,7.561141357368872,1.0,1.0,-1
4423,AgBiO2,mp-996968,11,-4.9275408275,7.696995053708715,-1.1240605147916662,150.51971111835897,1.8194000000000004,3.5544300000000004,6.875789642159362,2.0,1.0,-1
4424,CuHgO2,mp-996973,12,-3.97858594,8.313315928944172,-0.7550314468749999,59.1512951730479,0.0,3.858117460290317,6.375593951046836,2.0,1.0,-1
4425,CuAuO2,mp-996978,12,-4.6717656,8.851952831666695,-0.7056608131249993,54.87224851803608,0.0,3.4551896297714246,6.180399668419591,2.0,1.0,-1
4426,CuBrO2,mp-996993,12,-4.1197699425,4.728467977218997,-0.5629039056249994,61.61394937889346,0.0,3.774704069457101,6.0504202741437725,2.0,1.0,-1
4427,AgO2F,mp-997028,20,-4.10162862875,4.20640771062423,-0.6373643600891667,125.4287394341108,0.5231,4.4086,5.3558862031425765,2.0,1.0,-1
4428,CuO2F,mp-997035,20,-4.65758636625,3.6348168681044473,-0.8766594309225004,104.65642183854669,0.8182999999999999,3.958103,5.215298111750851,2.0,1.0,-1
4429,TlCuO2,mp-997042,11,-4.69595505,6.202852958944727,-0.9579074031249996,160.58492133137452,0.40349999999999975,5.485646,5.859914787971324,2.0,1.0,-1
4430,AgO2F,mp-997101,12,-4.11371274625,4.303992067548637,-0.6494484775891665,122.58489523425665,0.0,4.8094713288977005,6.919597928072195,2.0,1.0,-1
4431,C,mp-997182,194,-9.2190248725,1.008380923121407,0.007755827500000478,79.11389876546238,0.00010000000000001674,2.4680316454899844,14.997562,2.0,1.0,-1
4432,RbSnF3,mp-998193,1,-4.61149977,3.863580122379641,-2.7611485042140003,112.25028907001969,3.4835000000000003,4.609908,5.300348898437347,2.0,1.0,1
4433,InGeCl3,mp-998233,8,-3.393872344,2.8146712194019576,-1.166619440956,173.3398215635561,2.7338,5.549692736190896,5.647701176184517,2.0,1.0,-1
4434,SnS2,mp-9984,186,-4.46817588,3.841032282604105,-0.8163253504166667,158.08925340835899,1.4909999999999997,3.7008418377134142,13.328173999999999,2.0,1.0,-1
4435,InPbCl3,mp-998512,63,-3.418809423,4.422255894058269,-1.373632676956,321.7076355480278,2.5143,7.330435736829973,10.682042,2.0,1.0,-1
4436,InSnCl3,mp-998567,148,-3.3967795919999997,3.0567349977268257,-1.292217888956,369.2800600308455,3.0492000000000004,8.133889658462918,8.133889767558077,0.0,1.0,1
4437,InGeCl3,mp-998569,161,-3.403792247,2.844327916870299,-1.176539343956,343.0649497460598,3.2936,7.8265506907490865,7.826550709820514,0.0,1.0,1
4438,RbSnF3,mp-998620,148,-4.640872841,3.8195059599344585,-2.7905215752139996,227.0911422218274,4.0427,6.766064862998878,6.766064947388622,2.0,1.0,1
4439,TlGeF3,mp-998711,11,-4.575816291000001,5.225375559883135,-2.326550043714,212.29126128905915,3.4249,4.872013,7.537402502667482,0.0,1.0,1
4440,TlGeF3,mp-998712,1,-4.547832884,5.233987064051521,-2.2985666367140003,105.97098872631972,3.2618,4.720373,4.859761236691985,0.0,1.0,1
4441,TlGeCl3,mp-998743,11,-3.4236786230000003,3.9214048343885737,-1.2744318699559998,324.69041758205674,3.4586,5.743545,8.347123341651184,0.0,1.0,1
4442,TlGeBr3,mp-998746,62,-3.08743439,5.328087251216743,-0.7083422989999999,644.1780040635193,2.2918000000000003,4.2238760000000015,15.615167999999999,1.0,1.0,-1
4443,CaTlCl3,mp-998787,63,-3.842025388,3.932114398916584,-2.216264229956,296.3041022747671,4.2085,7.238353220599903,10.348365,2.0,1.0,1
4444,Br,mp-998864,71,-1.55302833,3.423121443241446,0.08389820999999986,38.76103018184613,0.0,4.538248320136527,4.538248320136527,1.0,1.0,-1
4445,K2O,mp-998914,12,-3.3672947516666665,2.011803963483164,-1.211806964083333,155.4983892631769,0.8692,4.270144133642447,10.17037691031724,2.0,1.0,-1
4446,TiAu,mp-998972,129,-6.0106000025,11.810856228483624,-0.4259132241666671,68.84440861436235,0.0,3.341711,6.164969,2.0,1.0,-1
4447,TaHgS2,mp-999139,166,-5.8651765325,7.714299167770318,-1.0883171003124996,95.93210081359844,0.0,9.893751341205467,9.893751423533594,2.0,1.0,-1
4448,SiP2,mp-9996,55,-5.5424217350000005,2.110661776567977,-0.12512648738095322,566.6596336594829,1.4852000000000003,3.448904,15.964942,2.0,1.0,-1
4449,BaSbF7,mvc-10428,14,-4.9640125530555546,4.311824417374593,-3.1871433300922214,603.9737773561221,2.6294,5.730388,10.503148125429822,0.0,1.0,-1
4450,BaTaF7,mvc-10429,14,-6.438664305,4.903365054243428,-3.803042149814445,611.2871457737115,3.9804,5.761893,10.422931887461415,0.0,1.0,1
4451,BaMoF7,mvc-10636,14,-5.3330756711111125,3.9616253251091886,-3.202246249258889,614.0733174439192,2.0481,5.697119,10.641079669980297,0.0,1.0,-1
4452,Sr2GaBi2O7,mvc-10772,46,-5.900888679166666,6.1606601172000035,-2.241989936631944,417.7423343584432,0.0,11.781727218346765,11.781727218346765,2.0,1.0,-1
4453,VS2,mvc-11241,166,-6.633766306666666,2.9010084733242762,-1.29047103875,65.86699865212796,0.0,7.740912354370768,7.740912378449262,2.0,1.0,-1
4454,NiS2,mvc-11598,166,-4.906191296666667,2.9713796264774164,-0.6641524920833332,68.63917763157905,0.6078000000000001,7.349769462262949,7.349770138316432,2.0,1.0,-1
4455,MgCr2F12,mvc-12009,2,-4.9074498706666665,2.862588355834967,-2.6456514309519994,206.67086140027686,1.3303999999999998,5.3472701963863765,10.659352167492218,2.0,1.0,-1
4456,ZnCr2F12,mvc-12792,2,-4.634558292666667,3.2212387093466863,-2.395462282285333,204.8492703175581,1.3037999999999998,5.385223549613794,10.747292722913382,2.0,1.0,-1
4457,TiF4,mvc-13239,1,-6.351873465,2.866872903290788,-3.636334954618667,143.48413292499163,4.3462000000000005,5.172571,5.73350637215474,2.0,1.0,1
4458,V3O7,mvc-13330,62,-7.493631633250001,2.8919938460227006,-2.301093984125,608.2232220286406,1.4539,5.3777050000000015,10.760167,2.0,1.0,-1
4459,MoF4,mvc-13531,1,-5.329749849000001,3.921369789211221,-2.7303811359520003,145.61364842539191,3.1859,5.069271,6.3781726192401695,2.0,1.0,1
4460,CrS2,mvc-13555,166,-6.45670545,3.0827036534626577,-0.9236963820833342,62.55285858739589,0.0,7.892469282239367,7.892469696588577,2.0,1.0,-1
4461,CoF4,mvc-13941,140,-3.973573533,2.8108174879130803,-1.7902698669519996,159.42069269668497,1.617,6.446879031057741,6.446879031057741,0.0,1.0,-1
4462,MnS2,mvc-14047,166,-6.365825526666666,2.7683818321996165,-0.9965967919683908,71.41975070291899,0.0,7.591476556150391,7.59147669305676,2.0,1.0,-1
4463,WF5,mvc-14167,15,-5.343083020000001,4.37708011317075,-2.7247701634916672,211.561791703845,3.0758,5.6111472471490185,8.010659035227626,1.0,1.0,1
4464,CrF5,mvc-14215,15,-4.723953505833333,2.6529645901894283,-2.2668204826583334,184.00510119624678,0.8270000000000004,5.369193637875244,7.470488061530182,1.0,1.0,-1
4465,MoF5,mvc-14217,15,-5.06033022,3.0497233959723418,-2.6574312701583342,207.92054259833046,2.1194,5.539455431836329,7.991138471477264,1.0,1.0,-1
4466,VF5,mvc-14312,15,-5.179657471666666,2.5820384106274106,-2.762214681825,187.70309802278481,2.5467000000000004,5.405122385717182,7.551087664767902,1.0,1.0,-1
4467,CaCr2F12,mvc-14383,2,-5.026669825333333,2.5149454812215497,-2.7378500636186667,245.65354940903873,1.3546999999999998,5.649810071225585,11.420099283745772,2.0,1.0,-1
4468,SnF3,mvc-14464,2,-4.746502000625,4.010663266125295,-2.6786964365175,290.9896397538415,1.8242,4.192246,9.292200520087636,2.0,1.0,-1
4469,WF4,mvc-14582,1,-5.4336388289999995,5.234222531482871,-2.575773427952,164.86263710610055,1.165,5.201433,6.334196834780003,2.0,1.0,-1
4470,SbF5,mvc-14697,2,-4.466938793333333,3.47326028544891,-2.5949801418250003,207.2549482342,3.6793,5.5356693287537775,7.932700947226177,1.0,1.0,1
4471,Sr2CoCu2O7,mvc-15100,46,-5.5526416816666675,4.800019530958946,-1.6750290214236108,327.4438221873179,0.0,12.84684886245876,12.84684886245876,2.0,1.0,-1
4472,Sb2S5,mvc-15221,14,-4.088553705357144,2.8605711712190534,-0.42813201758928543,937.7153850925454,0.0,7.8224339999999986,13.720180422589927,2.0,1.0,-1
4473,TaF5,mvc-15779,2,-6.679466895,4.412138446663401,-3.5193788451583337,207.70380752129532,5.0207,5.5528728939508625,7.919663988493582,1.0,1.0,1
4474,BiF5,mvc-15798,2,-3.975226263333333,4.465698282177893,-2.1430954334916663,226.06008737814656,1.8064,5.660862188901534,8.233356052899259,1.0,1.0,-1
4475,BiF4,mvc-15980,139,-4.250792276,5.952987855183915,-2.336345306952,158.98251188538626,0.7818,6.644906093957688,6.644906093957688,2.0,1.0,-1
4476,Ca(TiS2)8,mvc-16026,164,-6.6434929072000015,2.867409059329504,-1.813997951866668,542.0762100161098,0.0,6.840437063815807,13.3771,2.0,1.0,-1
4477,SbF5,mvc-3453,14,-4.47137636875,3.49371864363904,-2.5994177172416664,412.0826283337023,3.6795,5.521642,10.095787,1.0,1.0,1
4478,TaF5,mvc-3488,14,-6.6824840170833335,4.421096839637729,-3.522395967241668,414.5658816911029,5.126200000000001,5.539671,10.086571000000001,1.0,1.0,1
4479,BiF5,mvc-3518,14,-3.98108937125,4.498726661729068,-2.1489585414083328,448.80083622843176,1.8703,5.64076,10.281911000000001,1.0,1.0,-1
4480,MoF5,mvc-3781,14,-5.06975519,3.0544367150367715,-2.666856240158333,415.1993983989017,1.9359,5.600683,9.990884,1.0,1.0,-1
4481,CrF5,mvc-3813,14,-4.7492269770833335,2.6914456572728187,-2.2920939539083336,362.74855973314027,1.1666,5.348484,9.770392999999999,1.0,1.0,-1
4482,WF5,mvc-3816,14,-5.347294359166667,4.429374811405952,-2.7289815026583333,418.12804316722026,2.9959,5.6132089999999994,10.014541,1.0,1.0,-1
4483,YBi3F15,mvc-6273,11,-4.820636453684211,4.661767390206637,-2.744592977342983,712.9938986127638,0.967,5.9627550000000005,11.656153,2.0,1.0,-1
4484,Re2O7,mvc-7040,36,-8.067356783333333,3.840255901042698,-1.9997220443055568,418.9207270929464,3.4689,6.951442,9.187325588618485,0.0,1.0,1
4485,Ca(SbO2)2,mvc-7329,12,-6.0774438364285714,4.758842544813139,-2.185120374285714,242.57834452092843,2.144,7.092268391651928,11.350267292298716,2.0,1.0,-1
4486,ReBiO5,mvc-7493,61,-7.275981775178572,4.729671293761539,-1.9098547982142875,1334.6589410213908,2.9632,6.3048,16.923317,2.0,1.0,-1
4487,MoAs2O7,mvc-7986,14,-6.3948148000000025,3.298531211245919,-1.7595609878750005,720.4491558952701,2.997,7.663575999999999,10.029406410282117,2.0,1.0,-1
4488,MgTi(GeO3)2,mvc-8038,14,-6.9767555645,3.912874515680304,-2.5551735055833333,532.0828066194899,1.8309,5.363897,11.897220590041401,2.0,1.0,-1
4489,CaTi(GeO3)2,mvc-8112,14,-7.1673605622500025,3.905394607660927,-2.705246520333334,559.928049460972,2.1633,5.417338,12.187591080937526,2.0,1.0,-1
4490,TiZn(GeO3)2,mvc-8162,14,-6.67780422475,4.3273434419125145,-2.2902758098333327,544.2120499653122,2.028,5.353999,12.143433241272295,2.0,1.0,-1
4491,CaGe2WO6,mvc-8404,15,-6.7555848260000015,4.7087547135474495,-2.2223073387500003,328.1009616156396,2.1382,5.3749069916604135,8.347714049137643,2.0,1.0,-1
4492,SbO2,mvc-9477,59,-5.963775528333334,4.277842923646023,-1.756998135833334,477.4789515009563,2.4046,5.942578,12.294619,2.0,1.0,-1