,pretty_formula,task_id,spacegroup.number,final_energy_per_atom,density,formation_energy_per_atom,volume,band_gap,min_abc,max_abc,Dimension,Dim,is_uv
4094,Li3V2(O2F)2,mp-761181,1,-6.355756726363636,3.2051558314718824,-2.687180100670908,465.6544926076177,0.9705,5.222804,14.942230319245851,2.0,1.0,-1
4095,Mn2CoO6,mp-761501,12,-6.656405907777778,4.200843325247712,-1.581958880414482,104.67426441673936,1.4682000000000002,5.8591470820278975,6.523515721629634,2.0,1.0,-1
4096,SbOF3,mp-761759,14,-4.8078063925,3.5271897036695745,-2.2805429704640003,366.74822145775596,2.5639,5.588086,9.484393581324008,0.0,1.0,-1
4097,PtS2,mp-762,164,-5.130732403333334,6.203726717794527,-0.7917699220833333,69.38329059128432,1.4440000000000004,3.5800739727824062,6.2508669999999995,2.0,1.0,-1
4098,Mn(CO3)2,mp-762239,14,-7.409845803888889,2.3865041215699105,-1.6978001892350183,243.46994662753934,1.2569,5.272762999999999,7.380302,2.0,1.0,-1
4099,Li2Cu2F5,mp-762270,62,-4.4037190313888885,3.874850607160013,-2.2793846155685182,404.48608494369216,0.08279999999999997,2.927501,17.835593,2.0,1.0,-1
4100,P(H3C)3,mp-762352,62,-5.065790829999999,0.9301000086400892,-0.2772325289347245,1086.5873698723246,4.1823,5.325883,21.978091,0.0,1.0,1
4101,LiFeSiO4,mp-762632,148,-6.836265421428571,2.869517388770673,-2.5428509011904765,179.2400295363635,3.0213,8.229638510781017,8.229638937358674,2.0,1.0,1
4102,Mn(CoO3)2,mp-763057,12,-6.188417702222222,4.404192687977071,-1.3635860664572408,101.34758383090171,1.1777000000000002,5.771492869724869,6.447968497686151,2.0,1.0,-1
4103,VPO5,mp-763482,85,-7.361901687857142,3.222871621865109,-2.498541791403061,166.84601061272286,2.2993,4.495883,6.091867,2.0,1.0,-1
4104,V3OF11,mp-763903,4,-5.721261612,2.9841628296163454,-2.916099268622666,420.4610907838636,1.9363,5.274723000000002,14.937413632707505,2.0,1.0,-1
4105,V3O7,mp-764115,159,-7.4620838460000005,2.613221856416101,-2.269546196875,1009.660437438294,1.1608,9.762755,10.927886099021073,1.0,1.0,-1
4106,W7(OF5)6,mp-764257,148,-5.682857370232557,4.501185661105239,-2.6981973210046517,720.4208517765262,3.4853,10.980105729242,10.980105886899498,0.0,1.0,1
4107,VOF3,mp-764274,113,-5.901426608,2.658525261845046,-2.719582219964,309.6464866546218,3.4051,4.026689,8.769181,1.0,1.0,1
4108,V6O5F19,mp-764557,1,-5.831512725,2.9105940969203083,-2.743838848128667,425.9558121847312,2.2666,5.301993,14.910290523636453,2.0,1.0,-1
4109,V6O5F19,mp-764852,1,-5.840038708333334,2.890313867103373,-2.752364831462001,428.94458162644685,1.9467,5.374773,14.725539374185722,2.0,1.0,-1
4110,VF5,mp-764959,62,-5.235337105416667,2.545471130805674,-2.8178943155750003,380.7991401066822,2.8169999999999997,5.607228,8.26567,1.0,1.0,-1
4111,LiMn8F33,mp-765136,159,-5.032861807023808,3.0111178055406933,-2.446339715655351,1183.8862310540849,1.4644999999999997,8.619139827856143,18.401426,2.0,1.0,-1
4112,V2OF7,mp-765500,8,-5.707795268,2.6223051965580417,-2.808462413458001,158.86078631415182,2.4732000000000003,5.978174984655517,5.999136784241379,1.0,1.0,-1
4113,VF5,mp-765600,14,-5.2310433537500005,2.6530918825448455,-2.813600563908333,365.35229863483636,3.1486,6.339077,8.772703331733155,0.0,1.0,1
4114,VF5,mp-765621,19,-5.23821978625,2.5626233011973656,-2.8207769964083327,378.25037231351195,3.0717000000000003,5.066445,12.944237,1.0,1.0,1
4115,VF5,mp-765624,14,-5.211234510833333,2.3461970908041896,-2.793791720991667,413.1422810028887,3.3069000000000006,6.5913580000000005,8.700765617525681,0.0,1.0,1
4116,VF5,mp-765646,62,-5.1631911175,2.6146426307013244,-2.745748327658333,370.7249344118534,3.1936,6.2225410000000005,9.408838000000001,1.0,1.0,1
4117,VF4,mp-765724,148,-5.597613046,2.852816472157932,-2.9807917249519997,443.3107754069548,0.8423,7.674547009096303,7.674547151530246,2.0,1.0,-1
4118,Ca2Bi10O17,mp-766275,8,-5.772131485172412,7.64655928696645,-1.8035847324568968,530.2977312276539,1.6687999999999996,7.879111391387483,9.870098903511403,2.0,1.0,-1
4119,Bi5O7F,mp-766358,2,-5.591159107692309,7.695616748128973,-1.6995914180723086,507.4633125811393,2.5000000000000004,4.192272,13.483164504419355,1.0,1.0,-1
4120,Mn5O9F,mp-766870,1,-7.003439234,3.9714511090771074,-1.867717837367724,183.00366270670153,0.0,5.075277447517228,7.924044170644307,2.0,1.0,-1
4121,Sn(PO3)2,mp-766947,61,-6.9208694275,3.298348795161166,-2.441965384126983,1114.2415244964777,3.7854,7.354764,15.193184,2.0,1.0,1
4122,KV4O10,mp-767780,63,-7.235229507333332,3.0190298533351805,-2.356917646366667,443.1635180520309,0.0,6.095569357933352,20.580322,2.0,1.0,-1
4123,VSO4F3,mp-768093,60,-5.821484285833333,2.1592472783574745,-2.2526833732438893,627.5313189842943,0.9283,7.184761999999999,10.642329,1.0,1.0,-1
4124,B2TeO5,mp-768235,15,-6.9732642634375,3.2322488446135766,-2.256962786510416,471.03688188028747,3.3159,7.225920488688067,9.718707938529484,2.0,1.0,1
4125,Mg(IO3)2,mp-768315,60,-4.695108686388887,4.695464498492883,-1.3481866761111103,529.2126774579214,3.3252,5.303923,14.780551999999998,1.0,1.0,1
4126,CoTeO4,mp-768381,10,-5.635313709166668,5.077649157140572,-1.4086002758333336,163.86172404165526,0.7244000000000002,3.0914745878075727,8.786664042910086,2.0,1.0,-1
4127,Ba2YI7,mp-768426,14,-3.678398182250002,3.781921984591037,-1.5811480744166673,2198.6853812112204,2.638,9.454081,17.733072684487286,2.0,1.0,-1
4128,V2SO8,mp-768637,62,-6.84180178409091,2.0973189677697945,-2.092517624375001,829.5675069257463,1.959,5.902495,13.056137,1.0,1.0,-1
4129,CrP2S7,mp-768680,5,-5.222756272,2.1314623017628107,-0.7437014459017859,263.6331568102092,0.0,6.3928348660735015,6.53536938748316,2.0,1.0,-1
4130,YBrO,mp-768906,129,-7.258112838333332,4.664391442778788,-3.1417584643055565,131.58543113663805,4.507,3.8683389999999997,8.793439,2.0,1.0,1
4131,Sr(IO3)2,mp-768909,19,-4.8984589861111125,4.270976488848584,-1.5416257310185186,680.2770913745845,3.4174,6.0418970000000005,18.128989,2.0,1.0,1
4132,Pb(BrO3)2,mp-769016,60,-4.2487022494444435,5.158820688671585,-0.6419808091666666,596.1338380269782,3.2568,5.715423,16.519758,1.0,1.0,1
4133,Si3Sb2O9,mp-769028,176,-7.207850843928571,3.9082871789230937,-2.7260698611607137,400.8888324622629,4.1105,6.980461634405708,9.500031,2.0,1.0,1
4134,Li3SbN3(O3F)3,mp-769129,36,-5.683894614210527,2.480008431736624,-1.6741142972084206,516.3628332879482,3.3378,7.000172,8.787964913339719,2.0,1.0,1
4135,Ni(PS3)2,mp-769218,5,-4.7287632,2.6351997817815174,-0.5682467995436511,197.25262651793577,0.3245,5.8233265788799775,6.9733431995112625,2.0,1.0,-1
4136,SbSO4F3,mp-769377,19,-5.241661920833334,2.8481418783830525,-2.0365171004661105,640.9030568341168,1.8163,5.462643,12.753502000000001,1.0,1.0,-1
4137,Li2Mn3F8,mp-769630,166,-5.852613979230767,3.10569917054264,-2.9583973821563214,176.80805795975792,3.3809,6.273907466058852,6.273907794918967,2.0,1.0,1
4138,S,mp-77,70,-4.1354432690625,1.4696555599456038,0.0010065978125002317,1159.3505117076488,2.7125,9.619602558391485,14.72191034799224,0.0,1.0,-1
4139,Si2As2O7,mp-770811,2,-7.006698095454545,3.1167243029070018,-2.471377810795455,677.7218351676871,4.652,7.175748,12.986803468458355,2.0,1.0,1
4140,Li2BSeO4,mp-770832,14,-6.000903185,2.732074955225923,-2.128926827897136,407.5881890523154,2.3328,5.0563,10.836636792942958,2.0,1.0,-1
4141,Mn(IO3)2,mp-771047,60,-5.136291159444443,4.815531558393668,-1.1359717859016858,558.2704169544402,1.9549000000000003,5.460386,14.965345999999998,1.0,1.0,-1
4142,FeCo9O20,mp-771048,2,-5.732810064000001,4.4453203682515126,-1.140837650333334,338.5207606899383,0.35809999999999986,4.9228879999999995,9.792591433769767,2.0,1.0,-1
4143,SbTe,mp-7716,164,-3.738586218333333,6.185587901830058,-0.10243513333333354,401.64850444518237,0.20670000000000047,4.351546535431857,24.492228,2.0,1.0,-1
4144,Ca3Pb3I14,mp-771827,11,-2.8813555475,4.614656568154532,-0.9568096745,1812.512761642395,0.0,4.509780999999999,24.3075206835465,2.0,1.0,-1
4145,Ca3Pb3I14,mp-771877,11,-2.867740843,4.628128436392221,-0.9431949699999996,1807.236777313184,0.0,4.455408,24.508421474898988,2.0,1.0,-1
4146,Mn3CoO8,mp-771970,166,-6.767604965833333,4.252384997384489,-1.6307540905704605,137.3540290469874,1.3409,5.78163434434875,5.801266744489949,2.0,1.0,-1
4147,Na2BiBSO7,mp-772048,11,-6.086122010416666,3.594989589641362,-2.220173788559027,378.6056096364767,3.0737,5.5282,9.676588286780936,2.0,1.0,1
4148,CuPO3,mp-772192,14,-6.3804512547500005,3.5911635673015696,-1.9305534672142848,527.1976932446772,1.5535,5.5719660000000015,14.085499220362832,1.0,1.0,-1
4149,Hg2W2O7,mp-772206,2,-6.025830792272727,8.376056836795224,-1.7038969785227274,349.2563377831234,2.3069,7.283671565337971,8.455182802533137,2.0,1.0,-1
4150,Sb4I2O5,mp-772282,14,-5.144152284090909,5.220421119116317,-1.4357561446590912,522.1980066086041,1.9316,5.298476,13.971192210940695,2.0,1.0,-1
4151,Ni(IO3)2,mp-772376,60,-4.448308855833334,5.147432764747999,-0.8774027755555562,527.1195544873403,2.7882,5.2009370000000015,14.697107,1.0,1.0,-1
4152,Mn3TeO8,mp-772541,12,-6.691955581666666,4.455254298601719,-1.7293561118204603,156.69276722316994,0.8437000000000001,5.8744798259771045,5.980733760750433,2.0,1.0,-1
4153,CrO3,mp-772550,15,-6.606492195,2.582597942067121,-1.5122312259374997,257.1742800265965,2.3334,5.857595822078627,6.869993774440992,1.0,1.0,-1
4154,LiMnPO4,mp-772626,148,-7.113723508571428,2.920458407873228,-2.5729053767885612,356.73335081020065,3.4759,5.068473846114727,8.785832943056906,2.0,1.0,1
4155,BeCrO4,mp-772665,14,-6.721338557083333,2.42944736362798,-1.9943181887499992,341.7685087127097,2.2718,5.279256,8.657073859375638,2.0,1.0,-1
4156,CuHgO2,mp-772856,12,-3.968218425,8.51880895312453,-0.7446639318749995,57.72443155911086,0.0,3.749617986438752,6.01554080512434,2.0,1.0,-1
4157,Mn3(SeO3)4,mp-773071,2,-6.128957053157895,3.7504187072643096,-1.530314921906344,595.6436338336202,0.6683000000000001,7.666997999999999,10.477240699603165,2.0,1.0,-1
4158,Co(NO3)4,mp-773130,2,-6.030109873529412,1.9169232087418864,-0.8540985693835289,1063.5942125904803,0.1349999999999998,7.4256160000000015,12.847536067398838,0.0,1.0,-1
4159,Li2Cr4O13,mp-773197,15,-6.424744202894736,2.294216704456642,-1.7104449025219304,622.257694338458,1.4095,7.645249270743826,14.058010355820947,2.0,1.0,-1
4160,TiV2CrO10,mp-773510,115,-7.478499193571428,3.0489226008298527,-2.278784456845238,197.01502683023082,1.5437,4.455879,6.649408,2.0,1.0,-1
4161,Co5NiO12,mp-773511,12,-5.546070858333334,4.528325585840991,-1.0607535650000004,199.980892379804,1.1467,4.896603827361776,9.617988809595538,2.0,1.0,-1
4162,MnCo3O8,mp-773602,166,-6.0732766341666675,4.4742829795467225,-1.310848846301263,133.50751851955778,0.0,5.7521666313646564,5.752166863700758,2.0,1.0,-1
4163,Bi3(TeCl5)2,mp-773980,2,-3.1986486503333333,3.933552332829228,-1.165634346506667,1044.1151744698318,1.1818,7.013980999999999,15.215483617359714,2.0,1.0,-1
4164,W(BrO)2,mp-774146,26,-5.3883974939999995,4.740223152782644,-1.3139353965000011,263.1843128638798,0.9203,3.869619,8.823862,2.0,1.0,-1
4165,V3OF11,mp-774359,2,-5.6842218,3.0510072865497033,-2.879059456622666,411.2492172498484,0.9625,5.198864,15.029176548930616,2.0,1.0,-1
4166,LiSO3F,mp-7744,12,-5.604223802500001,2.0041431876356963,-2.3476472568997218,175.6575726333726,5.8027,5.3076954927822495,5.7725066794544295,2.0,1.0,1
4167,Hg2W2O7,mp-774407,15,-6.02669958090909,8.465441585065197,-1.704765767159091,691.1372328274975,2.2134,7.355386431312837,14.946538897155854,2.0,1.0,-1
4168,KRe4O8F13,mp-774754,5,-6.470876358461537,4.626139163924353,-2.4969923901334616,415.98401767620896,3.1304,5.509637088705664,14.364362123265098,2.0,1.0,1
4169,NbS2,mp-774873,194,-7.101153355,3.681858769176832,-1.4187250970833332,141.6485857906729,0.0,3.3893220401788318,14.238228,2.0,1.0,-1
4170,Mn2CrO6,mp-775006,12,-7.16944564,4.0924230417515295,-1.8276953154144835,104.63260112053102,0.0,5.798527355063956,6.504817249065804,2.0,1.0,-1
4171,Fe3Co7O20,mp-775826,10,-5.820965247999999,4.3706714458226035,-1.1954804953333331,341.9559475498686,0.0,2.895382,20.587709821069392,2.0,1.0,-1
4172,TiMn2O6,mp-775831,12,-7.669345873333333,3.9306003510871768,-2.2992128213404093,107.19592384090107,1.4985,5.826306095469067,6.534598728952375,2.0,1.0,-1
4173,LiV3OF11,mp-775901,1,-5.68241326875,2.9343590963480763,-2.933265892667084,435.4531670407798,0.18009999999999993,5.299624,15.305089070808148,2.0,1.0,-1
4174,LiV3OF11,mp-775902,1,-5.736265545,2.909371811935582,-2.987118168917084,439.1930782094147,1.2934,5.2868129999999995,15.460256677584011,2.0,1.0,-1
4175,VOF3,mp-775981,2,-5.8496611815,3.032605833195741,-2.667816793464,271.45071014566736,1.8436,5.292168,9.330487658244342,2.0,1.0,-1
4176,V2O5,mp-776041,14,-7.408078410714286,2.707078096501905,-2.2606299130357144,446.26543404636567,2.08,5.359819,10.229742885049896,2.0,1.0,-1
4177,LiFe2F9,mp-776050,2,-4.529927655833333,2.6823156166328,-2.3492710032536106,358.58548746258657,1.1007000000000002,5.036041745156601,9.934313992027102,2.0,1.0,-1
4178,HfSnO3,mp-776083,148,-8.345009739,6.592594463634103,-3.00425831675,173.89666541206324,2.3784999999999994,7.45647790460248,7.456477921128781,2.0,1.0,-1
4179,Na(BH)5,mp-776332,14,-4.943823355681818,1.136497593144186,-0.3156147758878783,959.4703504719156,4.7322,6.743436999999999,13.342207,1.0,1.0,1
4180,B10H13,mp-776402,61,-4.902160612826087,0.9332791798062576,-0.1669217299446374,1725.3511408251034,3.2060000000000004,10.729184,14.805902,0.0,1.0,1
4181,VOF3,mp-776441,2,-5.849977832,3.0137498131349774,-2.668133443964,273.14908604060963,1.8455,5.474497,10.435282464519013,2.0,1.0,-1
4182,P8W3O29,mp-776468,165,-7.164870951375001,3.55370894547186,-2.3585718289955366,1180.5957699104138,1.9217,9.934526094780416,13.812626999999999,2.0,1.0,-1
4183,VOF3,mp-776473,1,-5.887068579,2.8485465831458283,-2.7052241909640005,288.990537098313,3.0655,5.46281,10.892589041519058,2.0,1.0,1
4184,VOF3,mp-776474,1,-5.889792244000001,2.7511635331470914,-2.707947855964,299.2199471585771,3.0504,5.756675,7.677915710327445,2.0,1.0,1
4185,V3OF11,mp-776537,1,-5.693238210666666,2.999503695063018,-2.8880758672893325,418.31065602030816,1.5278,5.270295,14.789773971462376,2.0,1.0,-1
4186,NbV3O10,mp-776661,115,-7.767575730714285,3.3104701918087165,-2.427313020892857,203.5124844798861,1.6575,4.511462,6.716405,2.0,1.0,-1
4187,Mn5(SeO3)8,mp-776755,2,-5.947539857702703,3.7544762029501655,-1.4267954072115097,1141.4035627892426,0.7582,8.138689,14.288393758319232,2.0,1.0,-1
4188,Rb2O,mp-776922,143,-3.2046029777777787,2.9755505188420552,-1.1356917731944445,312.9634685574108,0.1842,6.612189,7.39279897597013,2.0,1.0,-1
4189,LiV3OF11,mp-777269,4,-5.7506411465625,2.9253586476537072,-3.001493770479583,436.79292546386915,1.5119,5.253806,15.616906688845775,2.0,1.0,-1
4190,LiV3OF11,mp-777339,1,-5.723310530625,2.890179681283701,-2.974163154542083,442.10952350621824,0.0,5.290361,15.502229628246289,2.0,1.0,-1
4191,V3OF11,mp-777440,1,-5.693156358666668,3.003700042673605,-2.887994015289333,417.7262511539982,1.6069999999999998,5.2737099999999995,14.753310223367805,2.0,1.0,-1
4192,LiVF6,mp-777453,14,-5.1584308009375,2.7654187131398738,-2.9291645834966675,412.8151667826652,3.1429,5.047447,15.218195489699195,2.0,1.0,1
4193,NaSnO,mp-777546,129,-4.552172728333333,4.257977548576234,-1.3622095481944445,123.00000569395591,0.0,4.343088,6.520905,2.0,1.0,-1
4194,LiFeF4,mp-777559,62,-5.063180569166667,3.0256340798513635,-2.8418261888488887,304.6620478486182,3.1785,3.0562840000000002,15.496089000000001,2.0,1.0,1
4195,LiV3OF11,mp-777575,1,-5.7195740775,2.8827479206310413,-2.9704267014170838,443.24928745763606,0.009800000000000031,5.282646,15.573700366340976,2.0,1.0,-1
4196,V6O5F19,mp-777793,1,-5.8398672839999985,2.8141488017560103,-2.752193407128668,440.55398624271635,2.1504,5.385957,14.994509059930436,2.0,1.0,-1
4197,V6O5F19,mp-777859,1,-5.837289996666668,2.9074401174379587,-2.7496161197953337,426.4178873566188,2.0716,5.33867,14.819479708296305,2.0,1.0,-1
4198,LiFeF4,mp-777898,14,-5.0580340377083335,2.5625840904565163,-2.8366796573905564,719.426830316324,3.5555,5.32939,18.328232,2.0,1.0,1
4199,Na2SnO2,mp-778057,60,-4.76493894675,3.81422461103804,-1.7388975015833332,685.0329037851616,2.1033000000000004,5.851947,17.015319,2.0,1.0,-1
4200,V3OF11,mp-778369,1,-5.6929693740000005,3.0071146088273166,-2.8878070306226657,417.25192473008315,1.5402,5.269611,14.760277235399716,2.0,1.0,-1
4201,SbAsO4,mp-7784,11,-6.0345480941666665,4.373809257106552,-1.7394178408333332,197.93638451275035,3.1116,4.944542,7.109329,2.0,1.0,1
4202,CrO3,mp-778667,33,-6.589428590625,2.5816445847221887,-1.4951676215624996,257.2692501050658,1.5648,5.338271,8.666514,1.0,1.0,-1
4203,Mg4N6O19,mp-779162,143,-6.1123442431034505,1.7918658912420309,-1.4646339937251731,1349.0539554758434,3.2343,7.086023,14.826821558855322,0.0,1.0,1
4204,P2H9(CBr)3,mp-779221,14,-4.612057873823528,2.28286789810102,-0.34292120351310856,1008.9302991481584,2.5267000000000004,7.3021449999999986,17.161433,0.0,1.0,-1
4205,V3OF11,mp-779357,1,-5.717364421333332,2.986890144284221,-2.912202077956,420.0771698343904,2.1827,5.265154,14.836368290876374,2.0,1.0,-1
4206,V3OF11,mp-779445,1,-5.717391823333332,3.0108468436086278,-2.912229479956,416.7347007638917,2.1561,5.257403,14.75177942692806,2.0,1.0,-1
4207,Rb19O3,mp-779582,226,-1.8787014831818185,1.7938410945079168,-0.4529222202840909,3095.2938815116217,0.0,16.358329898335953,16.358329898335953,0.0,1.0,-1
4208,AgGeO3,mp-779664,26,-5.382966755,4.985150741385606,-1.3444507020833334,152.2296210696573,0.0,3.170383185032694,9.308652340774517,2.0,1.0,-1
4209,Si(HgO2)2,mp-779704,70,-5.0327853821428565,7.77275609256211,-1.744880149999999,210.75732672121723,1.2566,6.511845248523801,7.98920020804492,2.0,1.0,-1
4210,AgGeO3,mp-779706,18,-5.3787901210000015,5.193309320191855,-1.3402740680833332,292.2558860053485,0.0,3.172892920366277,10.407861262339571,2.0,1.0,-1
4211,V6O5F19,mp-780092,1,-5.8466715670000005,2.835499011415342,-2.7589976901286675,437.23678530747736,2.0987,5.397412,14.804425165670194,2.0,1.0,-1
4212,NaBi5O8,mp-780238,7,-5.5219155523214285,7.355292773208839,-1.6126193011309518,1079.9390822132978,2.286,7.9104899999999985,16.426526000000006,2.0,1.0,-1
4213,TiGeO3,mp-780260,148,-7.743336431999999,3.9330191466442272,-2.6922331764166665,142.28736606278068,1.1227999999999998,7.081934587773953,7.08193490769613,2.0,1.0,-1
4214,V3OF11,mp-780323,4,-5.716875334,2.9980614852162266,-2.9117129906226658,418.5118832967017,2.2048,5.25812,14.819444649264458,2.0,1.0,-1
4215,NaCu3O2,mp-780403,61,-4.578450768333333,4.074059876280625,-0.8945169076388885,800.9160915067056,1.2691,7.458152,14.343577,2.0,1.0,-1
4216,V6O5F19,mp-780444,1,-5.845384519,2.8222545598620488,-2.7577106421286675,439.28867726034406,2.012,5.397283,14.81960234704103,2.0,1.0,-1
4217,V6O5F19,mp-780467,1,-5.839254962999999,2.875486465805166,-2.751581086128667,431.15642769913774,2.0865,5.316549,14.908904992225919,2.0,1.0,-1
4218,V6O5F19,mp-780495,1,-5.842221665333332,2.8148356916514587,-2.7545477884619998,440.44648011635627,2.0284,5.3783769999999995,14.831362969400418,2.0,1.0,-1
4219,Rb(BH)5,mp-780534,14,-4.956412012159091,1.6387254348467897,-0.35857780910757564,1171.8945649381747,4.0007,7.281787,15.29525703194876,2.0,1.0,1
4220,V6O5F19,mp-780624,1,-5.837473533,2.9367692863457053,-2.749799656128668,422.1593021481332,2.0736,5.29305,14.763919999957091,2.0,1.0,-1
4221,Mn(NO3)4,mp-780939,2,-6.207793194117648,1.8362376507282585,-0.8996325650079501,1095.8777690853108,0.4176,7.6832410000000015,12.79824519381423,0.0,1.0,-1
4222,VOF3,mp-781081,4,-5.8903414000000005,2.8294490363985783,-2.708497011964,145.47054858084292,3.1159,5.400268,5.58380627931029,2.0,1.0,1
4223,Ta2CS2,mp-7814,166,-9.178171218,8.080862535327947,-1.2005080792499996,90.01225441532014,0.0,9.807034844055972,9.807035409107687,2.0,1.0,-1
4224,LiV8F33,mp-781739,159,-5.5794864607142864,2.742482838608681,-3.0080025120857936,1261.1339461118594,1.1968,8.8854012596894,18.444907,2.0,1.0,-1
4225,Te2Pd,mp-782,164,-4.156404863333333,7.914048115404642,-0.3342436399999998,75.87572485123681,0.0,4.1163319286301485,5.170725,2.0,1.0,-1
4226,HgO,mp-7826,152,-2.9190874383333334,9.8588192615054,-0.6444145214583333,109.44165337803429,1.3417,3.7572953197044563,8.951613,1.0,1.0,-1