,pretty_formula,task_id,spacegroup.number,final_energy_per_atom,density,formation_energy_per_atom,volume,band_gap,min_abc,max_abc,Dimension,Dim,is_uv
2772,Ni5Te4(ClO6)2,mp-555161,15,-4.953762632608695,5.002482088479297,-1.2968246022400007,708.2109458791849,3.1857999999999995,10.276465310516306,16.416610039659986,2.0,1.0,1
2773,SiHg3(SF3)2,mp-555194,164,-3.9431957075,5.7544690809361825,-2.126059403199166,233.15366888466642,2.7984,4.90985,7.404942965141728,2.0,1.0,-1
2774,TlHgAsS3,mp-555199,64,-3.5026752987500003,5.832000309626862,-0.5454384069791671,656.117787404502,1.5939,6.289707014002004,16.680051000000002,2.0,1.0,-1
2775,BN(OF2)2,mp-555207,14,-5.76695097625,2.094611117161563,-2.166276547350834,421.1500243401834,3.0022,6.665239,9.324626180610194,0.0,1.0,1
2776,SbSNF5,mp-555255,14,-4.876328774453125,3.1364695528108766,-2.04417702901,2226.3454661926344,0.0,8.589048,16.508511,0.0,1.0,-1
2777,NbTe7Br5O,mp-555275,54,-3.777980961071429,4.875131605408571,-0.5969302668749995,1909.6545921850159,0.5461,8.204464999999999,27.022715,1.0,1.0,-1
2778,BSBr,mp-555279,14,-4.662535265833333,1.9646153349341184,-0.7327658732638891,1245.3185087491029,3.6292,4.954436,18.926806582439106,0.0,1.0,1
2779,Ga2S5N5Cl7,mp-555282,14,-4.540901396052631,1.9532772972499413,-0.7535088637023686,2101.4373358999,2.5009,8.812126,18.915165923597968,0.0,1.0,-1
2780,SbS(BrF2)3,mp-555288,14,-3.708363559772728,3.258072618669816,-1.7959934207059094,1034.6842512016874,2.5783,8.363382000000001,12.696261697069495,0.0,1.0,-1
2781,PNF2,mp-555292,14,-6.1266400059375,2.0902522539201978,-2.0749254267703567,527.3506891219996,5.1673,5.210614,14.194370999999999,0.0,1.0,1
2782,NbS2,mp-555293,42,-7.130373303333332,1.2078462283082534,-1.447945045416667,215.89258446638402,0.0,3.3561786224818255,22.28950508334871,2.0,1.0,-1
2783,AsIF12,mp-555340,205,-3.707919015,3.200930983043802,-2.048652398877143,891.8794766566213,0.6263999999999998,9.625767999999999,9.625767999999999,0.0,1.0,-1
2784,VP2Cl7O4,mp-555373,2,-4.8918559575,1.955660801857065,-1.7498490642830606,721.8274145883922,2.1144,8.41265,10.748077586499365,0.0,1.0,-1
2785,TcO3F,mp-555390,14,-6.845194371,3.641817676539584,-1.9415610809879995,300.9302824080249,2.4587000000000003,5.262658999999998,9.517857276237178,2.0,1.0,-1
2786,SbS7IF6,mp-555408,19,-4.141178608833333,2.650076183519047,-1.575362360434334,1471.5334049139651,2.0004,9.422260000000001,12.773598,0.0,1.0,-1
2787,PNF2,mp-555443,14,-6.125136654875,2.1587010165601423,-2.0734220757078576,1276.5732239985246,5.4844,5.0969169999999995,16.26488311718486,0.0,1.0,1
2788,KRe2O4F7,mp-555490,13,-6.350639859285714,4.389971661949248,-2.570213707237857,460.33823374282633,3.0464,5.314603,15.81942239125642,2.0,1.0,1
2789,Re2S2NCl11,mp-555493,15,-4.2364818671875,2.9336135643844723,-0.8877401774681251,951.5493537313916,0.2345,9.148056905187245,11.950947404853222,0.0,1.0,-1
2790,OsOF5,mp-555514,33,-5.248807440714286,4.5020019179504684,-2.0237002138857143,444.4155627479441,0.8102,5.165511,9.685951,0.0,1.0,-1
2791,CdTeMoO6,mp-555560,113,-5.872881557777778,5.339739431143151,-1.7779008319444438,268.65188523356164,3.2184,5.361574,9.345559,2.0,1.0,1
2792,SbTe(ClF2)3,mp-555629,62,-3.9073474768181815,3.144265063927252,-2.129424212901818,992.245659540416,3.747,6.539933,17.501263,0.0,1.0,1
2793,Nb2Te4Cl10O,mp-555641,2,-4.300360491764706,3.3667279070310734,-1.38506701905,526.1390523926643,1.2099,6.863616,9.236116837574707,1.0,1.0,-1
2794,SbMoOF9,mp-555680,14,-4.9749057854166665,3.2869100953729067,-2.60205070683,817.7836089116478,3.7184,7.684971000000001,12.232699405710663,1.0,1.0,1
2795,MoP(Cl3O)2,mp-555695,14,-4.42175958475,2.111246557551928,-1.5475230158131432,1169.18048123962,2.6455,6.727192999999999,13.857531,0.0,1.0,-1
2796,ReO2F3,mp-555704,64,-6.6198209935416665,4.409581756388143,-2.420236239553334,829.0709692755478,3.3417,7.745792324506126,13.878516000000001,0.0,1.0,1
2797,Re2(HgO2)5,mp-555759,14,-5.494097332647059,7.771487446427868,-1.4432672807352944,656.1219992419135,1.2963,6.613564,11.849757,0.0,1.0,-1
2798,S,mp-555760,154,-4.0955079266666665,1.7637297508524017,0.04094194020833283,271.700733234875,2.3159,4.403378,8.44086789781667,1.0,1.0,-1
2799,VHg4P2O9,mp-555798,62,-5.50677329234375,6.22204180627116,-1.903386512868304,1130.7641275737885,1.6473000000000002,7.2058490000000015,16.98868,1.0,1.0,-1
2800,AlSCl7,mp-555805,7,-3.1246588472222223,1.8186114156720727,-1.3473785656605557,561.0288381495366,2.5238,6.452506,13.607258448600733,0.0,1.0,-1
2801,Sr2Cu(BiO3)2,mp-555827,66,-5.7519191727272725,6.928457216674173,-2.048989117348485,360.8189966762927,0.0,5.133051999999998,13.018800648867314,2.0,1.0,-1
2802,Hg3As8(S4Br3)2,mp-555833,14,-3.501338603,3.7835508426497038,-0.4697599425999999,1700.311924204258,2.1064,10.200968,14.656154700574909,0.0,1.0,-1
2803,SnPO3F,mp-555838,14,-6.445526157083332,3.6340094043973816,-2.515458781001905,396.0432363706784,3.9434,4.792567,13.112759,2.0,1.0,1
2804,H8C3S2,mp-555848,14,-4.9721679244230765,1.1599225284657635,-0.3149206071315377,619.7409416806947,3.965,7.249308,11.084297,0.0,1.0,1
2805,Sr2CaCu2(BiO4)2,mp-555855,139,-5.730291988666665,6.585421537245503,-2.041734115555555,224.0048628771904,0.0,16.128153502743828,16.128153502743828,2.0,1.0,-1
2806,P4PtF12,mp-555863,217,-5.2686347094117645,3.0262525583432165,-2.6350668999156306,300.1230867946913,4.9933,7.305339973115557,7.305339973115557,0.0,1.0,1
2807,Nb2Tl5S4Cl9,mp-555900,71,-4.27527658,4.881762499039028,-1.4159019180919998,562.973348884251,1.7231999999999998,10.023360557384633,10.023360557384633,1.0,1.0,-1
2808,TlAsF6,mp-555911,148,-4.43753848625,4.8746007870250505,-2.4945294627675003,133.97655947146606,4.6652,5.156959330010758,5.156959338473109,0.0,1.0,1
2809,S,mp-555915,19,-4.115865562222221,1.6308283247739959,0.020584304652777358,2350.739973080468,2.5405,8.261497,22.76662300000001,0.0,1.0,-1
2810,Hg2SeO3,mp-555918,36,-3.7357481275,6.870398020335731,-0.9290366918489584,510.59290077109597,2.3265,5.267545,10.251621182863762,1.0,1.0,-1
2811,Sb4RuC6(O3F11)2,mp-555952,14,-5.672505616538461,3.0295407613805354,-2.1371934480430763,1287.1243344430245,4.4456,9.991891,12.783767999999998,0.0,1.0,1
2812,TaP4S4Cl5,mp-555967,2,-4.903856045714286,2.3206550088084974,-1.0701320866489803,873.4945828626904,1.8707000000000005,7.0865089999999995,14.11726447169564,0.0,1.0,-1
2813,OsCl4O,mp-556006,14,-4.440551306666666,3.1604174628839043,-1.025817335715,731.4683560402632,1.0652,6.008732,12.731207346404345,0.0,1.0,-1
2814,NaCSN,mp-556012,62,-6.060603866875,1.5732016298505267,-0.5688801240845827,342.29179972624166,4.0391,4.1169730000000015,14.350435999999998,2.0,1.0,1
2815,VOF3,mp-556026,14,-5.9127306435000015,2.686559997801523,-2.730886255464,306.41526996848165,3.6569,5.382403,9.696631644278645,0.0,1.0,1
2816,CO2,mp-556034,60,-7.671109881666666,1.5191351397899604,-1.7650726691666658,192.42394474960759,6.6883,4.915284,7.2323850000000025,0.0,1.0,1
2817,P4S(NF)6,mp-556050,14,-6.317177218897059,2.042839479300257,-1.5310438517694536,2301.954071491691,2.2497,9.625416,20.69857421699983,0.0,1.0,-1
2818,AuCS2Cl3,mp-556112,15,-3.860705048928572,3.010880326640703,-0.5452486340757149,837.1220317939102,2.0005,9.433068909927034,11.619990376429234,0.0,1.0,-1
2819,NaAsO2,mp-556145,61,-5.4889081403125,3.1665248050509405,-1.8726327505208331,545.0035594705251,3.6419,5.171219000000002,15.512049,2.0,1.0,1
2820,LiTl3(MoO4)2,mp-556157,186,-5.9815449749999985,5.898956459517857,-1.8680812880952369,529.1954402583323,3.829,6.143084171835268,16.192449,2.0,1.0,1
2821,SrSbSe2F,mp-556194,129,-4.651360583000001,5.111566554445695,-1.8051894665088333,250.985126788928,0.8536999999999999,4.124,14.757427999999999,2.0,1.0,-1
2822,KAs4ClO6,mp-556233,191,-5.6150843608333325,3.4581215185665584,-1.7421913311466668,225.7994952766037,3.1587,5.332715043459383,9.168444000000001,2.0,1.0,1
2823,S,mp-556269,14,-4.099271607638888,1.6208382663220364,0.03717825923611113,2365.228790517954,2.3376,8.499848,19.00802096679969,0.0,1.0,-1
2824,Bi6As9Se4S10(O4F13)5,mp-556278,2,-4.83096219377193,3.5413250927873543,-2.2762702274822364,1931.67111360882,2.0126,10.568197999999999,15.346888987292541,1.0,1.0,-1
2825,FeS3(NCl2)2,mp-556297,14,-4.659384037125,2.024262560596812,-0.6784519608425008,2112.2559149807453,1.2118,11.835256,14.412562996508287,0.0,1.0,-1
2826,LiAlS3(Cl2O3)2,mp-556310,62,-5.007414236,1.7837688519521102,-1.9032232348832216,1370.0326563997555,2.3552,9.759696,13.697134,1.0,1.0,-1
2827,TeAs(ClF2)3,mp-556325,14,-3.839236302272727,2.940055004874847,-2.0131205688109093,955.3479051926104,3.9703,9.050432,11.747586751584516,0.0,1.0,1
2828,AsS,mp-556328,14,-4.5083744740625,3.012222879637472,-0.4423203381250005,943.6509103155806,2.1105,8.958155999999997,10.482698308046933,0.0,1.0,-1
2829,Ti4S8Br6O,mp-556341,14,-5.3509070863157895,2.7156499381005026,-1.4860064699780704,2307.471907327729,1.3943,9.706645,20.084746367166925,0.0,1.0,-1
2830,AsS2NF10,mp-556406,61,-4.464083856428571,2.4219500382010395,-2.052435880395,1881.5753745496,4.5235,10.084601,15.151333,0.0,1.0,1
2831,AlSCl3O2,mp-556418,2,-4.70447992,1.804394078182705,-1.9228442679150004,363.33262242999115,3.9834,6.486707,8.082951406459522,0.0,1.0,1
2832,ReO2F3,mp-556419,14,-6.615918067916668,4.851309532479483,-2.4163333139283343,376.79065790304253,3.4309000000000003,5.0984419999999995,13.089065906596426,1.0,1.0,1
2833,NbCl3O,mp-556422,113,-5.742837615,2.70162022797068,-2.1211329272060007,529.2462251388408,2.8184,4.001072,11.501135000000001,1.0,1.0,-1
2834,SbF4,mp-556425,14,-4.64571859725,3.9454594739427256,-2.683478242202,1331.6678649345329,3.4408000000000003,9.607517,12.255957,1.0,1.0,1
2835,AgBi(PS3)2,mp-556434,2,-4.492962772,3.973504640567397,-0.6542526482559531,477.4006621350738,1.1837999999999995,6.500439,9.929399863625497,2.0,1.0,-1
2836,Sb2BrF15,mp-556436,14,-3.928713181944445,3.4475621738756623,-2.195203124880556,1172.1581765582405,0.0,5.412007,14.829873000000001,1.0,1.0,-1
2837,Tc2O5F4,mp-556442,14,-6.4171084845454525,3.201796266697576,-2.086947784637272,730.2078145449748,1.8738,5.487031,15.408520000000001,1.0,1.0,-1
2838,NClOF4,mp-556500,108,-3.822471665,2.247697071579463,-1.0890160695214288,209.0030357301605,1.6461,7.019429494595912,7.019429494595912,0.0,1.0,-1
2839,Sr2FeBrO3,mp-556507,129,-5.920424660357143,4.837273342753481,-2.5647263270833327,492.93246651224166,1.3007999999999995,5.620385344089229,16.101730717315515,2.0,1.0,-1
2840,AsSOF9,mp-556515,62,-4.353203476875,2.6930703329305947,-2.2563097314654166,725.0480882364897,3.9252,7.454014999999999,11.174918,0.0,1.0,1
2841,Tl2S,mp-556516,146,-3.29756049,7.504253966445805,-0.5654618810416665,877.9237578824071,0.899,9.67592249577481,9.675922529883804,2.0,1.0,-1
2842,InSb2S4Cl,mp-556541,12,-4.13486451,4.241925353843078,-0.8654274282199999,408.72293024780345,1.5677,10.303442531279,11.827680700729283,2.0,1.0,-1
2843,SrTa2Bi2O9,mp-556569,36,-7.8737775475,7.0520549732110895,-2.774056522351191,476.3398420175485,1.5824,5.7010559999999995,15.186439923899279,2.0,1.0,-1
2844,Cu(IO3)2,mp-556582,11,-4.459474372777779,5.0713713479314295,-0.8348938491666663,270.6905100063044,0.5519000000000003,5.1045440000000015,8.365504921113367,2.0,1.0,-1
2845,AuSCl7,mp-556587,14,-2.5025606805555562,2.8713693273831136,-0.777690875660556,1103.882389422284,1.8347,9.082930000000001,12.210672433472118,0.0,1.0,-1
2846,TlBi(PS3)2,mp-556592,4,-4.530025054499999,4.306583072939824,-0.7384052330892856,514.906573722155,2.0483,6.774259,10.022603512106274,2.0,1.0,-1
2847,FeWClO4,mp-556603,129,-6.5339133164285705,4.3678696254124905,-1.8795358590371427,257.8593048649655,1.2931,5.576939,6.799759,2.0,1.0,-1
2848,Tl2OsCBr2OF3,mp-556622,14,-5.10238550475,5.739225251274267,-1.4065264987319992,1953.126783952469,0.7049,11.524739,17.940220447624522,0.0,1.0,-1
2849,TlBiP2S7,mp-556665,14,-4.508051145,4.0976148056970025,-0.7453976830925328,1134.3078425269528,2.1830000000000003,9.196401,12.625944,2.0,1.0,-1
2850,CaBiCO4F,mp-556666,54,-6.7213446803125,5.637363819210527,-2.5306413179612504,405.39057874563207,2.2248,5.409111,13.826329000000001,2.0,1.0,-1
2851,Te3W2Se4(Cl4O)2,mp-556693,9,-4.052814958684212,4.239104237868282,-0.9396602012081572,1082.6674120004943,1.0027,8.49063064792351,15.472138378097483,2.0,1.0,-1
2852,AsS(ClF2)3,mp-556705,19,-3.761660838181818,2.4566221903414527,-1.9055733831859087,885.0432922473562,3.7779,8.076032000000001,12.268798,0.0,1.0,1
2853,Re2SCl12,mp-556726,11,-3.837913663333333,3.0384222904086764,-0.9440299328163332,907.1196481197348,0.6747,8.727585000000001,11.39863,0.0,1.0,-1
2854,TaP2S2Cl5,mp-556728,14,-4.903659969125,2.496095683678809,-1.3137015720942855,2577.411244864688,2.3399,6.839192,27.75506902744956,0.0,1.0,-1
2855,GaS,mp-556742,194,-4.23371759375,3.4166653419521875,-0.9831749090625,197.88060415013402,2.0248,3.6235160805235838,17.402523000000002,2.0,1.0,-1
2856,TlCO2,mp-556745,14,-6.439607255625,5.88964203272818,-1.4196661012499998,280.12972331433826,2.9986,6.006213,6.941691039644014,2.0,1.0,-1
2857,ClF3,mp-556767,62,-2.50570386875,2.262550947815069,-1.1268285242075,271.39961436231516,2.6336,4.698805,9.209027,0.0,1.0,-1
2858,AlSeS2N2Cl5,mp-556831,14,-4.247012502954545,2.0039580730166526,-0.9414064756503406,1244.1043454625844,2.2431,9.594147,14.886427815493818,0.0,1.0,-1
2859,RuCl(OF3)2,mp-556834,13,-4.377505913999999,2.9347523421471533,-1.6232186767900003,319.70164571381736,0.5673000000000001,5.843416,10.417071716878981,0.0,1.0,-1
2860,AgAs(S8F3)2,mp-556837,15,-4.185346121458333,2.2481495877173208,-1.2027289097419438,1196.3066143383874,2.7409000000000003,10.0573519462787,16.180680037850973,0.0,1.0,-1
2861,HgO,mp-556859,11,-2.919859496875,9.877796448579687,-0.6451865799999998,291.28371857726887,1.265,5.822097,7.428448580070068,1.0,1.0,-1
2862,Sb5IO7,mp-556869,14,-5.6057848826923085,5.225534520126911,-1.6143481829807702,1077.5084613301387,2.5763000000000003,6.949383,13.590367738133247,2.0,1.0,-1
2863,HgSb4C2(OF11)2,mp-556903,14,-4.765920585806452,3.714917710354782,-2.3460276630219363,1038.4656431952535,4.2982,7.775144,14.317701999999999,0.0,1.0,1
2864,CuAs2S4(O2F3)4,mp-556926,14,-5.0033162916666685,2.5678858985698056,-2.1025263545103705,902.2472243447676,0.7370999999999999,7.6904600000000025,13.214657,0.0,1.0,-1
2865,Sn3WO6,mp-556980,15,-6.46950700375,5.935831753975785,-1.858523519000001,711.6421731715209,2.1584,7.784458548732211,14.188066999770264,2.0,1.0,-1
2866,TaP4S6Cl5,mp-557016,2,-4.8344439721875,2.3355035926910714,-1.0458117746459823,959.1337502454492,2.3162,7.253300999999999,12.224398348559413,0.0,1.0,-1
2867,Sb8Cl2O11,mp-557022,2,-5.644408461904763,5.010368348661976,-1.7281212223938092,1618.6306891031436,2.8513,10.699742,14.246120790600436,2.0,1.0,-1
2868,NaW2(Br3O)2,mp-557030,12,-4.365274214545455,4.830029967017317,-1.016020093257576,310.13471204279944,0.0,9.21203627885024,11.270479292405007,2.0,1.0,-1
2869,S,mp-557031,15,-4.0924682415625,1.6708719307177318,0.04398162531250005,1019.7346033127935,2.0748999999999995,9.659668408576351,11.854702831288725,0.0,1.0,-1
2870,CuClF10,mp-557055,14,-2.724662604166667,2.604916345485472,-1.0947826887633336,368.4322646692028,0.0,5.1483870000000005,9.312312,0.0,1.0,-1
2871,VCuSe2O7,mp-557097,14,-5.806927651590909,4.021543061715089,-1.4239645628125004,634.8972891094525,0.0,8.286705,8.989889,2.0,1.0,-1
2872,Sn(S4I)4,mp-557101,43,-3.722557198333333,2.252209414038703,-0.5952495704761899,1680.096765581416,1.7979,13.037816939072124,16.438782512001914,0.0,1.0,-1
2873,Zn2TeCl2O3,mp-557130,56,-4.2375848078125,3.8239343890501942,-1.6241489940962497,1310.8138164495774,3.6543,7.762507,15.863871,2.0,1.0,1
2874,Os2O3F7,mp-557132,14,-5.6836664825000005,5.022551180707106,-1.9223734622566664,742.4949440855188,0.6016,5.734113,12.661292967705352,0.0,1.0,-1
2875,Cu3Se2(ClO3)2,mp-557136,12,-4.693362793846154,4.055990019094798,-1.0571214299005771,211.03161680764904,0.0,5.504088266165979,7.813976174594147,2.0,1.0,-1
2876,CrSbF10,mp-557145,14,-4.652862779166667,3.208127585452819,-2.488316941825,753.0931151430339,1.3280000000000003,5.8196650000000005,12.460700440586875,1.0,1.0,-1
2877,HgSeO3,mp-557224,14,-4.3654705545,6.1952309626266215,-1.05815290471875,351.17759810775965,2.5864,4.632233,10.376502,1.0,1.0,-1
2878,AlTlF4,mp-557233,140,-5.266774990833333,5.8045871044650745,-3.30187009996,175.8542707048969,4.4124,7.460078668054916,7.460078668054916,2.0,1.0,1
2879,Te2As2Se8S(OF6)2,mp-557236,14,-4.244443793240741,3.6264165470734016,-1.5561825746724074,2433.77546673231,1.3994,7.4844800000000005,36.84331146385439,0.0,1.0,-1
2880,HgINO3,mp-557250,62,-4.513742603333333,4.776762654018851,-0.7608823410216671,541.6044021001806,1.9661,5.485165,12.946849,2.0,1.0,-1
2881,Tl2CS3,mp-557251,15,-4.477175023333333,5.300060187696193,-0.41566564656250016,323.9407365572592,1.829,6.576185857961513,9.524830949778636,0.0,1.0,-1
2882,MoF6,mp-557259,62,-4.925128279642856,2.946658353191554,-2.662564874948572,473.2108314786412,4.1687,5.211086,10.077573,0.0,1.0,1
2883,AlS2(NCl2)2,mp-557272,14,-4.5162452927777785,1.8697989314597727,-1.0038115321166674,926.9359890499594,1.0519,7.032298,16.688942,0.0,1.0,-1
2884,TiP2Cl8O3,mp-557289,14,-4.896351833571429,1.921124514915855,-1.9327898364504423,1526.237201061438,2.7254,9.034207,16.017332999999994,0.0,1.0,-1
2885,Tl3(MoO3)10,mp-557297,12,-6.781651127906978,5.068089953982903,-1.953712679011628,672.5037314529523,0.0806,10.40179877883763,10.455883535037774,2.0,1.0,-1
2886,As4S3,mp-557321,62,-4.542910349642857,2.840778334088493,-0.3921327466964283,925.6287582202086,2.4852,7.076803999999999,12.124244000000001,0.0,1.0,-1
2887,AsPCl3OF5,mp-557360,14,-4.373455913863636,2.294595317992849,-2.0841492470955845,935.6983138134053,4.5083,6.1743190000000014,20.058134,0.0,1.0,1
2888,CaBi2B2O7,mp-557371,62,-6.925348326875,6.1602534338358605,-2.5200057999652783,637.9405710261286,3.176400000000001,5.5628699999999975,12.76517,2.0,1.0,1
2889,Cu2WS4,mp-557373,121,-5.841511915714285,4.613843105131656,-0.8345834474999998,158.06681265928674,1.6795,6.5623340195738304,6.5623340195738304,2.0,1.0,-1
2890,S,mp-557376,15,-4.10465786,1.6593842329137614,0.03179200687500057,641.7463070266036,2.1919,8.605803020392694,9.18514236140306,0.0,1.0,-1
2891,As2Cl3OF5,mp-557417,14,-4.124565075681819,2.6538011573947298,-1.903819086770909,919.0430001510852,3.3000000000000003,6.214348,19.375232999999998,0.0,1.0,1
2892,GeClO2F5,mp-557432,20,-4.284554600833333,2.9771993068014795,-1.8988923299122225,524.4739369670099,1.7408,8.531463916043952,9.042188000000001,1.0,1.0,-1
2893,NaNb2PS10,mp-557436,15,-5.5703466301785705,2.6450037858076225,-1.1660289996896265,1407.347324965797,1.6443000000000003,13.031002090488665,13.706063887569544,2.0,1.0,-1
2894,KCrIO6,mp-557449,14,-5.460694972777778,3.3488604252016523,-1.488644767833333,622.7807031178,2.6645000000000003,4.872166,14.307461699875695,2.0,1.0,-1
2895,MoSeCl7O,mp-557464,2,-3.5352185045,2.412262153694383,-1.1519008231413743,604.4894839236944,2.4419999999999997,8.171544,9.985084014551457,0.0,1.0,-1
2896,Te2SO7,mp-557480,31,-5.653225074,4.3405720290837,-1.7053000731875003,305.4842319029213,2.8813000000000004,5.000247,8.796154,2.0,1.0,-1
2897,BiS4N3Cl4,mp-557484,2,-4.540079412916667,2.668926526866083,-0.6521782256399996,648.3964500865736,2.0533,7.624055999999999,9.908760122985724,1.0,1.0,-1
2898,S,mp-557488,14,-4.1197759,1.616746403613377,0.01667396687500005,1185.6075027320285,2.4459999999999997,7.817678999999999,17.362980425068613,0.0,1.0,-1
2899,LiNi(PS3)2,mp-557500,5,-4.7214470980000005,2.6379844631762714,-0.7860900509226199,201.41357442925263,0.0,5.895839254841674,6.963700414548647,2.0,1.0,-1
2900,PCl2OF,mp-557522,14,-4.720353596000001,1.7909295121203346,-2.002912912506287,507.6482191341915,5.0026,5.760865,10.031447796303032,0.0,1.0,1
2901,VS2,mp-557523,194,-6.632872795,1.9009382480025607,-1.2895775270833336,201.03832557742768,0.0,3.1881478622807005,22.838696,2.0,1.0,-1
2902,S,mp-557559,14,-4.095903338214286,1.6690221055123624,0.04054652866071403,893.2567039411025,2.5163,8.202969,10.504510744098127,0.0,1.0,-1
2903,TeAs(BrF2)3,mp-557570,14,-3.7063078334090913,3.484638271191563,-1.7757169463309097,1060.2325312199878,3.083,8.176817999999999,12.6471662844606,0.0,1.0,1