,pretty_formula,task_id,spacegroup.number,final_energy_per_atom,density,formation_energy_per_atom,volume,band_gap,min_abc,max_abc,Dimension,Dim,is_uv
1437,Y2C,mp-1334,166,-7.6774683633333325,4.535817916454604,-0.2908940544444445,69.49298157941755,0.0,6.482894820055081,6.482895508610331,2.0,1.0,-1
1438,SiPt3,mp-13363,12,-6.41627645875,16.718541510695527,-0.5067671712499989,121.83728815210587,0.0,5.446100529422588,5.54219180769567,2.0,1.0,-1
1439,ScAg(PSe3)2,mp-13383,163,-4.6204946425000015,4.075887198057913,-0.5237880727872024,561.0232200306174,1.6484,6.535032236819648,15.168923000000001,2.0,1.0,-1
1440,BePd2,mp-13452,139,-5.205837513333333,9.646193892946636,-0.5061120183333329,38.19062931036724,0.0,5.337927933376583,5.337927933376583,2.0,1.0,-1
1441,BePd3,mp-13453,63,-5.20174432125,10.121525841664466,-0.3819797475,107.71276805817708,0.0,5.079339094089308,7.694678999999999,2.0,1.0,-1
1442,ZrGeTe4,mp-13542,36,-4.7987687825,5.83112990625263,-0.5081134149999998,384.0222156606074,0.4213000000000005,8.791600566003268,11.144247,2.0,1.0,-1
1443,PdS2,mp-13682,61,-4.754225080833334,4.276525016859246,-0.7122712329166667,264.89258142268096,0.6537000000000002,5.5017059999999995,8.607088000000001,2.0,1.0,-1
1444,Sn3Pd,mp-1371,64,-4.59478580375,8.104937046016117,-0.29263645999999977,379.0688766094101,0.0,6.599589999999999,9.337081455018053,2.0,1.0,-1
1445,SnS,mp-1379,63,-4.44848704,3.7528143404336722,-0.7072061790625002,133.42934398277887,1.2008,5.792169,6.345305639532348,2.0,1.0,-1
1446,TlCu3S2,mp-13829,12,-4.0334960466666665,6.963153991980455,-0.43262059270833336,218.99233364888562,0.4534000000000002,7.514490319021312,8.42791718749692,2.0,1.0,-1
1447,TaSe2,mp-13870,160,-7.0868110999999985,7.8271683668709455,-0.8036109048958325,143.78210018775204,0.0,13.752928225118751,13.75292824983047,2.0,1.0,-1
1448,Ag2F,mp-1391,164,-3.22804738,8.30967891480713,-0.8661599998411112,46.90750569311375,0.0,3.0572637487871406,5.794899,2.0,1.0,-1
1449,SnPS3,mp-13923,7,-4.7150900815,3.2445634653118587,-0.7467246180892865,503.3543579139076,2.2190000000000003,6.655798,11.845746194671907,2.0,1.0,-1
1450,Sn4Au,mp-1393,68,-3.937203868,8.44802851267089,-0.07477007600000007,264.09973672551394,0.0,6.6582240000000015,6.811545115303942,2.0,1.0,-1
1451,HfSiTe,mp-13963,129,-6.895006291666667,8.002290233291768,-0.7197383583333341,138.68816468115617,0.0,3.66266,10.338230000000001,2.0,1.0,-1
1452,Hg2GeO4,mp-13995,70,-4.457873815,8.077130594325682,-1.2845808921428572,221.13475202009155,1.0213,6.559487171297006,8.10385472753214,2.0,1.0,-1
1453,Se,mp-14,152,-3.488805096666667,4.403367043888126,0.007106380989583272,89.32902712304569,1.0119000000000002,4.51946568170099,5.049958,1.0,1.0,-1
1454,Ga,mp-140,139,-3.00390823,6.083220943531009,0.024187272499999857,19.03231304851284,0.0,3.134792127664449,3.134792127664449,2.0,1.0,-1
1455,TaS2,mp-1411,42,-7.7543068800000015,3.659922422630257,-1.486387758750001,111.19399460031124,0.0,3.3425663638025203,11.851917257553435,2.0,1.0,-1
1456,NbF4,mp-1416,139,-6.369710016,3.720526524569952,-3.213008900952,75.38315734095649,0.0,5.2413157690463565,5.2413157690463565,2.0,1.0,-1
1457,Tl2SiSe3,mp-14241,2,-3.9222021441666666,5.8581347513227975,-0.4828097420052082,381.9504057054461,1.6828,7.083117,8.91911859880835,2.0,1.0,-1
1458,Tl2GeSe3,mp-14242,2,-3.6839654083333335,6.175528205248084,-0.3782873670052081,386.2804672486707,1.1446,7.0933100000000024,8.959713423957544,2.0,1.0,-1
1459,MoS2,mp-1434,160,-7.23887235,4.242701217710914,-1.3083314287500003,62.649353501746646,1.5775999999999994,7.340952529050777,7.340952652332258,2.0,1.0,-1
1460,Sn3F8,mp-1443,14,-4.856339643181818,4.472517457587967,-2.7296926763200005,377.3036154793412,3.2196,5.494429,13.602532877135198,2.0,1.0,1
1461,Ta2PtSe7,mp-14474,12,-6.0469908695,7.332606221569607,-0.6212065381406248,502.6043259369785,0.0,8.048986977248068,18.995884398521934,2.0,1.0,-1
1462,AgSb2F12,mp-14653,2,-4.2890567173333345,3.9838893125039174,-2.4132460447297777,241.48886848390046,0.5524,5.430271,9.03434534432346,2.0,1.0,-1
1463,P4S3,mp-1468,62,-5.01244677625,1.5638993484390364,-0.4307163410586737,1869.5224765642429,2.8693,10.582652000000001,15.276872000000001,0.0,1.0,-1
1464,P4S3,mp-1469,62,-5.012266868928571,1.5457554840802366,-0.4305364337372453,945.7333365796388,2.8851,7.178191,11.999680999999999,0.0,1.0,-1
1465,Se,mp-147,148,-3.4667803750000004,4.024939423024076,0.029131102656249887,195.4556095160665,1.5760999999999998,6.753734826490303,6.753735020016849,0.0,1.0,-1
1466,Ge(Te2As)2,mp-14790,166,-3.82470039,5.9829184850180654,-0.03691919214285682,203.40928727380887,0.7328000000000001,13.993967954129165,13.99396888063658,2.0,1.0,-1
1467,Ge2Te5As2,mp-14791,164,-3.844603861111112,6.081727514477974,-0.03562639777777813,254.77753218343673,0.5946000000000007,4.164264509166655,16.965002,2.0,1.0,-1
1468,TaTe5Pt,mp-14815,63,-5.168046707857143,7.877542438357098,-0.36159099500000025,427.5037715617858,0.0,7.4549432627724945,15.671691000000001,2.0,1.0,-1
1469,Sb2(PSe3)3,mp-15046,14,-4.130292922678572,4.315280186659839,-0.1330741110220021,1611.6861998289762,1.4599000000000002,7.711956,23.875054043744004,2.0,1.0,-1
1470,Sn2S3,mp-1509,62,-4.481608198,4.356626317071112,-0.7939855358749994,508.6327817770618,0.8572000000000006,3.8015489999999996,14.430494,1.0,1.0,-1
1471,AlTl2F5,mp-1539038,123,-4.943094990625,5.739417947571868,-2.9966409332437496,307.1094556894833,4.0941,6.364625161381496,7.58136768,1.0,1.0,1
1472,CrF6,mp-1539213,148,-4.4016036428571415,2.389082423106877,-2.092553889591428,115.36943932730136,2.0865,5.5670786149499465,5.567078731015037,0.0,1.0,-1
1473,N2,mp-154,198,-8.33643521875,0.9187857815935584,8.881784197001252e-16,202.5166084203521,7.4649,5.8724620000000005,5.8724620000000005,0.0,1.0,1
1474,LiBiO2,mp-1540429,15,-5.421904121875,6.808878673255465,-1.8493320933333333,241.84961856719474,2.4143000000000003,4.9786735012011984,9.966818419933862,2.0,1.0,-1
1475,GeI2,mp-1540935,166,-2.8975014555555565,4.336280721578383,-0.3404837605555559,375.0319130096666,2.066,4.304630600000001,23.37038236000002,2.0,1.0,-1
1476,Mg(ReO4)2,mp-1541458,164,-7.913435133636364,4.457544794063832,-2.4175571181818185,195.46823826876584,3.9723,5.818598161337253,6.6666031247552,2.0,1.0,1
1477,CsHg5Cl11,mp-1542042,12,-2.11948037,4.265699822553438,-1.1661765499288843,593.9738997348716,2.8111,7.2182868037790895,9.835830735871008,1.0,1.0,-1
1478,TeF6,mp-1542727,148,-4.0790574585714285,3.2347815081809563,-2.412400068162857,124.01775148747663,4.4405,5.702733354822843,5.702733989972264,0.0,1.0,1
1479,TiTlPS5,mp-1542940,12,-5.2634570825,3.4003114124594886,-1.134034558441221,433.2135831476938,1.2668,6.767258756607128,9.826855167884457,1.0,1.0,-1
1480,HfSe3,mp-15622,11,-6.12386721,6.660319846606367,-1.0126363892578123,207.1186153154744,0.6109,3.749518,10.198176412106726,2.0,1.0,-1
1481,Re3B,mp-15671,63,-11.206638955,18.73476141756205,-0.20339562354166674,100.9422069165818,0.0,4.925206429591861,7.3681350000000005,2.0,1.0,-1
1482,P,mp-157,64,-5.375895105,2.4363411481751363,0.037390756428571585,84.44325110889318,0.11509999999999998,4.552418,5.849006185381067,2.0,1.0,-1
1483,GaSe,mp-1572,187,-3.853180095,4.391991759201682,-0.5911766049218752,224.8582816869081,1.2567000000000002,3.819066714705309,17.801796,2.0,1.0,-1
1484,As,mp-158,64,-4.634777965,5.0080207355778565,0.024340440000000463,99.36879282335742,0.0777000000000001,4.686427,6.0133078510258375,2.0,1.0,-1
1485,As2O3,mp-1581,14,-6.049306779,3.467561760647264,-1.6382601357499993,378.9675816813878,3.6301,4.685408,11.698231083641494,2.0,1.0,1
1486,As2O3,mp-1582,14,-6.0428552895,3.6168195106842855,-1.6318086462499992,363.3284688056575,4.0676000000000005,4.658531,13.822792999999999,2.0,1.0,1
1487,SiS2,mp-1602,72,-5.24201738,1.615089650285192,-1.118252795416667,189.62097895805732,3.14,6.877592851727412,6.877592851727412,1.0,1.0,1
1488,CuSiO3,mp-16053,51,-6.711097562000001,3.679809081971686,-2.2587941427500007,126.01771806237532,0.11220000000000008,2.8602529999999997,8.958139,2.0,1.0,-1
1489,Tl(TeMo)3,mp-16096,176,-6.621558830714287,7.657721754902117,-0.28891813642857145,379.4802709105462,0.2123,4.620138,9.73871870295908,1.0,1.0,-1
1490,PPd6,mp-1618,14,-5.526962651428571,10.252716467851727,-0.3137374055102039,433.72721761375055,0.0,5.733675,9.647092,0.0,1.0,-1
1491,Tl2B2Se7,mp-16183,15,-4.099170128181818,5.284263741260591,-0.2306728695217796,617.8685686195493,1.3001999999999998,8.66275842059312,12.381816803866748,2.0,1.0,-1
1492,TaS2,mp-16226,160,-7.7515202133333325,6.343004737039754,-1.4836010920833342,128.31817442073466,0.0,13.240616541963785,13.240616619344168,2.0,1.0,-1
1493,MoSe2,mp-1634,194,-6.6186930366666665,5.6922228012929175,-0.6728710415625004,148.11242010812632,1.4176000000000002,3.3269489459426635,15.451423000000002,2.0,1.0,-1
1494,Te2Au,mp-1662,164,-3.258454463333333,9.343096816165314,-0.07162666333333334,80.36310307048191,0.0,4.22738851991534,5.192563,2.0,1.0,-1
1495,Mg(AlS2)2,mp-16755,166,-4.822747574285715,2.2135155561972018,-1.5394059775000009,154.93360305520594,2.0169999999999995,13.137430662032092,13.137431360564818,2.0,1.0,-1
1496,Zr2Te2P,mp-16765,166,-6.8747077160000005,5.957328312796736,-1.1156499197142864,130.6231086153802,0.0,10.400634955008133,10.400635288498966,2.0,1.0,-1
1497,ZrSe3,mp-1683,11,-5.80695009125,5.2059993645546365,-1.048091325507812,209.3083274720436,0.5570000000000004,3.788102,10.156126586596091,2.0,1.0,-1
1498,Tl3PS4,mp-16848,62,-4.0559739484375,5.470036248785522,-0.7571984148214286,937.8901249068186,2.3082000000000003,9.110525,11.144428999999999,1.0,1.0,-1
1499,Tl2CrO4,mp-16892,62,-5.718549785714287,6.400186085316725,-1.5262618849999987,544.5997770282729,2.5422,5.973771,11.264367,1.0,1.0,-1
1500,C,mp-169,166,-9.225443465,1.8803468488618569,0.001337235000001158,21.213359204749427,1.7730000000000006,4.265459787103027,4.265460115147368,2.0,1.0,-1
1501,TaS2,mp-1690,164,-7.736195963333333,5.921970735880051,-1.468276842083334,68.72060201746828,0.0,3.3782864353948736,6.952858999999999,2.0,1.0,-1
1502,Tl2TeS3,mp-17172,62,-3.590739482083333,5.701471747341468,-0.5431434003124996,736.9277936496228,1.3386999999999998,6.23883,13.394135999999998,1.0,1.0,-1
1503,Tl4GeS4,mp-17207,9,-3.8160645083333335,6.1527301270112575,-0.7092201480555558,549.7228321125605,1.964,7.834232291374568,8.772344469809937,1.0,1.0,-1
1504,TaTe4Ir,mp-17287,31,-5.911503268333332,8.616494695557309,-0.3666013066666665,681.1094548098454,0.0,3.838145,14.046984,2.0,1.0,-1
1505,Zr3Tl2OF12,mp-17315,166,-6.5036881441666665,5.649829642270781,-3.63376175947389,544.566746468871,4.2614,11.133696036093852,11.133696054839113,2.0,1.0,1
1506,ZrSnS3,mp-17324,62,-6.089668769,3.9985332635710003,-1.494420351875,508.5256321866436,1.0325000000000002,3.7538709999999997,14.151665,1.0,1.0,-1
1507,Au3F8,mp-17407,14,-3.234051338636364,6.7905011903245756,-1.3080471849563635,363.32893230520943,0.5518,5.597077,10.941336,2.0,1.0,-1
1508,Tl2Fe3S4,mp-17488,72,-5.5539864294444445,6.597796692594743,-0.6622893108333341,354.64932192873937,0.0,8.742218393991939,8.742218393991939,2.0,1.0,-1
1509,GeAs2,mp-17524,55,-4.68815880125,4.730927999831477,-0.04107057958333312,624.7265572848985,0.7206000000000001,3.77233,15.530910999999998,2.0,1.0,-1
1510,AgRuF7,mp-17588,14,-4.2708840752777775,3.9198606901127424,-1.820795564721852,579.3911809708552,0.0,5.667358999999999,12.743670102371922,2.0,1.0,-1
1511,Ge3Sb2O9,mp-17708,176,-6.29943223642857,4.459342943913941,-1.9895697175892848,450.89503911935327,3.1269,7.19718471039121,10.051238,2.0,1.0,1
1512,NO2,mp-1771,14,-6.304780476666667,1.6517063669042245,-0.8235127682933326,185.0060799163731,2.7863,4.951068,6.8445369478896065,0.0,1.0,-1
1513,Tl3B3S10,mp-17823,2,-4.6412349875,4.219313418201115,-0.7754204299218754,760.5348637827756,1.9583,7.049964,13.966337853003054,0.0,1.0,-1
1514,Sn2Sb2S5,mp-17835,62,-4.422204965833334,4.520294025969337,-0.6841943520138898,942.2799299564607,0.7852000000000006,3.9688760000000003,20.601564,1.0,1.0,-1
1515,NbSeOF7,mp-17921,62,-5.539693834,3.1117966611428454,-2.7610205416923748,684.8668598904351,4.5147,7.3254850000000005,11.52219,0.0,1.0,1
1516,NbS2,mp-1802,166,-7.099383216666666,3.948506761572842,-1.4169549587499997,66.04143277788641,0.0,6.953182890873071,6.953183064814633,2.0,1.0,-1
1517,SiF4,mp-1818,217,-5.71912202,1.9756821166735308,-3.497619108952,87.4773483866214,7.939999999999999,4.843647174401021,4.843647174401021,0.0,1.0,1
1518,WSe2,mp-1821,194,-7.207529208333334,7.8571124179565395,-0.5575460665625004,144.45658944735112,1.5109000000000004,3.3270690125846505,15.068951,2.0,1.0,-1
1519,Tl2Cu2SnS4,mp-18240,72,-4.031328363888889,6.129355431106987,-0.606522739166667,424.161231099308,0.2965,9.374161513483807,9.374161513483807,2.0,1.0,-1
1520,TlSe,mp-1836,140,-3.20416196125,7.714674112607662,-0.27537973242187475,243.95203843565983,0.35809999999999986,6.845507665546948,6.845507665546948,1.0,1.0,-1
1521,KPSe6,mp-18625,29,-3.7680111978125,3.623696619571181,-0.3306169885167414,996.8322179548227,1.8858,7.03671,12.065905,2.0,1.0,-1
1522,SiAs,mp-1863,12,-5.114222023333333,3.3101751996131403,-0.07200581083333367,310.03914301665316,1.484,9.057021087979203,10.22790167770594,2.0,1.0,-1
1523,NbF5,mp-18687,12,-6.248819739999999,3.1448721768163863,-3.381477121825,396.8525390756369,4.5823,5.35852686983167,8.971222193258454,0.0,1.0,1
1524,AlTl(MoO4)2,mp-18733,164,-6.827527051666666,4.340171856188125,-2.269040499999999,210.903081605927,3.8711,5.643070021361513,7.6475339999999985,2.0,1.0,1
1525,NbS2,mp-1874,187,-7.130737513333332,1.8004347121356563,-1.4483092554166663,144.83449030935768,0.0,3.3557493515638197,14.851225,2.0,1.0,-1
1526,TeF6,mp-1875,62,-4.079750473571429,3.3157412311342016,-2.413093083162857,483.9585495164157,4.3975,5.281105999999999,10.11022,0.0,1.0,1
1527,SbF3,mp-1880,40,-4.80696678,4.233887899207107,-2.7093038696425005,140.2162815669539,4.5411,4.6204188644721365,7.116117,2.0,1.0,1
1528,TlV4O10,mp-18842,12,-7.187974773333334,4.383146082274744,-2.2262459768333334,215.2390377524059,0.04640000000000022,3.71376945,10.049393361721268,2.0,1.0,-1
1529,Ba2N,mp-1892,166,-4.463278773333333,4.403707634896102,-0.5331408241266669,108.84745516340612,0.0,7.962321959524433,7.962322207635785,2.0,1.0,-1
1530,LiV2O5,mp-18934,59,-7.116254046875,3.187448605902557,-2.3736212530729173,196.73706833349576,0.3474999999999999,3.62219515,11.4891817,2.0,1.0,-1
1531,TlV3O8,mp-18996,11,-7.07571617125,4.689679528005833,-2.1979915929166665,343.6049443976069,2.1201,5.101013,8.560234,2.0,1.0,-1
1532,Te,mp-19,152,-3.14330093,6.0484105835889945,0.0,105.09444521163715,0.5751999999999997,4.5123744196963536,5.959899,1.0,1.0,-1
1533,VPO5,mp-19000,129,-7.357048242142858,2.9526030121905094,-2.4936883456887764,182.11837846301498,1.8545,4.6598190000000015,6.2516169999999995,2.0,1.0,-1
1534,TiTe2,mp-1907,164,-5.424176903333334,5.9677182261775625,-0.6968122777777784,84.32948309954074,0.0,3.779460543355493,6.816936,2.0,1.0,-1
1535,MnTeMoO6,mp-19090,18,-6.739706131111111,4.747233400696307,-1.9160624542350195,261.9755098936763,1.7428999999999997,5.181474,9.354682,2.0,1.0,-1
1536,Zr2Cu,mp-193,139,-7.197253536666668,6.968518148194282,-0.13238422666666713,58.61829422874481,0.0,6.0592384399454025,6.0592384399454025,2.0,1.0,-1
1537,Tl2WO4,mp-19341,164,-6.028258866428572,7.173078214792937,-1.697816822857143,304.0025196282105,3.385,6.4400631114600095,8.463817,2.0,1.0,1
1538,Ni(AgO)2,mp-19405,166,-4.0995299880000005,8.221194800002008,-0.5450140631666671,61.893273885618235,0.0,7.972415803751581,7.972416127799151,2.0,1.0,-1
1539,GaSe,mp-1943,194,-3.85301922875,4.4080768371203165,-0.5910157386718753,224.0377735344352,1.2476999999999998,3.8176008624425366,17.750455,2.0,1.0,-1
1540,ScTl(MoO4)2,mp-19450,164,-7.187961476666668,4.094883061904332,-2.4139004854166664,230.82533838174604,3.6236,5.901882223314947,7.651944,2.0,1.0,1
1541,TaTe2,mp-1967,12,-6.410950246296296,8.612117523908866,-0.3628237496296297,756.8597762277693,0.0,9.495522973801338,9.668823567283146,2.0,1.0,-1
1542,PbCN2,mp-19727,62,-7.286844093125,6.020154367877737,-0.07575105681499927,272.7672755007748,1.9315,3.92452,12.420916,2.0,1.0,-1
1543,Li(TiS2)3,mp-19755,164,-6.382656213,2.603147300615359,-1.7393224012083337,218.75519032390446,0.0,3.4211282099260765,21.581869,2.0,1.0,-1
1544,Rh(OF3)2,mp-19790,2,-4.176517466666667,2.966225920313049,-1.344121954404445,139.33510656478194,0.0,5.228001,5.285715816291017,0.0,1.0,-1
1545,InS,mp-19795,58,-3.93545777125,4.771415569597188,-0.8231209728124997,204.47178088912392,1.5450999999999997,4.010446,10.725346,2.0,1.0,-1
1546,TaNiTe2,mp-19810,53,-6.36505742125,8.732372562010344,-0.3839283787500003,376.3940539051756,0.0,6.26406,7.976555999999999,2.0,1.0,-1
1547,TaS2,mp-1984,194,-7.75868831,6.114813551853879,-1.4907691887500008,133.10672210966268,0.0,3.3421187876975584,13.760229,2.0,1.0,-1
1548,InGaS3,mp-19885,36,-4.241296339,3.9681485657830917,-1.0015465723750012,234.95748088707,1.8944,6.233365,10.08237472212519,2.0,1.0,-1
1549,ZrSiTe,mp-19917,129,-6.505000083333332,6.062739038952948,-0.7995615566666672,135.2533460636898,0.0,3.6986209999999997,9.887087,2.0,1.0,-1
1550,PbO,mp-19921,129,-5.4547825675,8.470751469645759,-1.4756262981249997,87.50848721504977,1.7743000000000002,4.062481,5.302339,2.0,1.0,-1
1551,In4Se3,mp-19932,58,-3.4809185303571435,5.644498577429334,-0.4102800513616072,819.1959490709575,0.2263000000000001,4.178928,15.593679000000002,2.0,1.0,-1
1552,TlIn(PSe3)2,mp-19985,2,-3.969093587,4.757190800006589,-0.27755585712053515,596.8268082209767,1.4562000000000004,6.605617,12.407466295677171,2.0,1.0,-1
1553,Sb2O3,mp-1999,227,-5.9514272964999995,5.104440285129293,-1.7524275192499998,379.3382488067645,3.4139,8.125446047001235,8.125446047001235,0.0,1.0,1
1554,VPbO3,mp-20032,99,-6.890503820000001,6.981900647635635,-2.120193910750001,145.6213593813756,1.5,5.419376684200591,6.2661796895346855,2.0,1.0,-1
1555,CO2,mp-20066,205,-7.686358236666668,1.4961164343477236,-1.7803210241666665,195.3845098517185,6.6402,5.802699,5.802699,0.0,1.0,1
1556,NbCrN,mp-20133,129,-10.064635055,7.707258602800772,-0.82902682246,68.47438629747826,0.0,3.036771,7.42513,2.0,1.0,-1
1557,NbTe4,mp-20196,124,-4.8541666480000005,6.575431837049563,-0.319264896,304.7142265164275,0.0,6.6133,6.967167999999999,1.0,1.0,-1
1558,RbMnAs,mp-20242,129,-5.13643539,4.231300114502648,-0.20264907405172514,169.006983602103,0.0,4.485616,8.399636,2.0,1.0,-1
1559,FeSe,mp-20311,129,-6.2548730925,5.619828229873189,-0.2719159136718749,79.66398961559156,0.0,3.688905,5.8541940000000015,2.0,1.0,-1
1560,InTe,mp-20320,140,-3.22438058875,5.986866155889604,-0.2768882587499997,268.9517680638536,0.013799999999999812,7.090322416862223,7.090322416862223,1.0,1.0,-1
1561,KMnP,mp-20422,129,-5.6537808766666675,2.7540037693834223,-0.42531711707553416,150.75082227634053,0.0,3.7930050000000004,10.478349,2.0,1.0,-1
1562,InSe,mp-20485,194,-3.63037491,5.0781373245637225,-0.506577306171875,253.4598170011162,0.4590000000000001,4.083622527017158,17.550413,2.0,1.0,-1
1563,NbNiTe2,mp-20506,53,-5.986157990625,7.137357843804827,-0.4441470956250004,378.57534497061545,0.0,6.306336,8.024317,2.0,1.0,-1
1564,BPd3,mp-20517,62,-5.812781314375,10.491386022522752,-0.2580220141666665,208.96983070686161,0.0,4.89773,7.708900999999999,2.0,1.0,-1
1565,PbS,mp-20526,39,-4.3991143975,3.860577830383568,-0.8062959290625002,205.82871125827012,2.2577,4.254705974189052,11.370189,2.0,1.0,-1
1566,MoO3,mp-20589,62,-6.991800824375,4.439512925292148,-1.9788909653125,215.3524571710581,2.0181,3.761025,14.425445999999999,2.0,1.0,-1
1567,NbInS2,mp-20621,187,-6.1305927425,5.506039018504012,-1.180850616562501,81.98721747143986,0.0,3.3854421948221183,8.260089,2.0,1.0,-1
1568,Sn4Pt,mp-20662,68,-4.702850328,9.022160644931539,-0.2810113020000003,246.60056885107238,0.0,6.518976,6.647541944309415,2.0,1.0,-1
1569,PbSeO3,mp-20716,11,-5.454021018000001,6.645457817762373,-1.4649100272187503,166.99609289268602,2.8941000000000003,4.598017,6.758871550594965,2.0,1.0,-1
1570,ZrSe2,mp-2076,164,-6.508735763333332,4.935219019109782,-1.3288945682291662,83.82877104481905,0.343,3.804684002275749,6.6869070000000015,2.0,1.0,-1