,pretty_formula,task_id,spacegroup.number,final_energy_per_atom,density,formation_energy_per_atom,volume,band_gap,min_abc,max_abc,Dimension,Dim,is_uv
3432,CuSe,mp-580226,129,-3.87657622,6.1306284584857895,-0.07901714617187494,77.19821281857513,0.0,3.766321,5.442176,2.0,1.0,-1
3433,Re3Se4Cl,mp-580748,2,-7.13187779375,7.879232675241991,-0.5604929884543752,383.5266215691156,1.1797,6.700803,9.215170455419095,2.0,1.0,-1
3434,ZrIN,mp-580886,166,-7.479923988333333,5.816178268011491,-1.4718621774599991,132.55079220555646,1.0175,11.051443749104683,11.051444287833196,2.0,1.0,-1
3435,AgI,mp-580941,186,-2.4119611975,5.286907458662271,-0.23367688833333355,294.9544272171785,1.3759,4.84863381150701,14.487235,2.0,1.0,-1
3436,Ga2NiCl8,mp-580999,15,-3.353720317727273,2.5320263869732016,-1.3657989087345457,631.8946363859591,0.4607,9.637532891305378,11.69831663911428,1.0,1.0,-1
3437,RuOF4,mp-581143,14,-5.0182120970833335,3.5701955518489714,-1.8178361539183336,359.1833224976886,0.5317999999999999,6.2670010000000005,8.908441448011262,0.0,1.0,-1
3438,Co5Te4(BrO6)2,mp-581171,15,-5.359558885,5.069825748861235,-1.3175314328260874,757.8258385588675,2.2494000000000005,10.740649347015896,16.558061765603153,2.0,1.0,-1
3439,Ta2Hg2F11,mp-581413,15,-5.793428663166669,5.806663572882324,-3.1301641657059998,1111.9229401727216,1.3643,12.552234810224752,15.034355505657368,0.0,1.0,-1
3440,Re(TeCl6)2,mp-581449,148,-3.333735478,3.009200198024753,-1.0819127602746663,1435.0258255202698,1.0362999999999998,14.166431863113587,14.166432081749342,2.0,1.0,-1
3441,BiP(PbO2)4,mp-581609,2,-6.062953081071428,7.982767855725262,-1.9115793523979587,497.8847197978743,2.6873,6.444372,11.054820858533935,2.0,1.0,-1
3442,Bi3Rh,mp-581990,62,-4.90108759,10.818847761475752,-0.14248489000000042,448.08430054617,0.0,4.331192,11.540357,1.0,1.0,-1
3443,Hg2NO4,mp-5824,14,-4.4540306492857145,6.796137549321491,-0.8051028217685712,468.3273370950623,1.6237,5.669043,12.21003930085182,1.0,1.0,-1
3444,Os(SeCl6)2,mp-582444,43,-3.047910462,2.916757472655091,-0.8302191869205003,880.8204222790579,0.0,8.950204796643705,12.789481745064885,0.0,1.0,-1
3445,In2Te5,mp-582549,9,-3.2500671428571435,5.45818505410034,-0.2186568414285713,527.9203468948825,0.9209000000000004,8.861659320815372,14.047816327897372,2.0,1.0,-1
3446,Ti4Te9I4O,mp-582657,15,-4.720921641111112,5.036312424713499,-0.8201776208101863,1228.8316714783916,0.4076000000000004,11.95795247144301,20.102851649491026,1.0,1.0,-1
3447,Bi6Cl7,mp-582968,58,-3.4578479527884616,6.22584187131544,-0.9872969760823082,3204.9877300110224,1.6159999999999997,8.871179,23.427531,1.0,1.0,-1
3448,MoP2NCl12,mp-582976,14,-3.9586908765625,2.070307105562972,-1.1667597102276788,1916.4116665545764,0.0,8.445794,21.825425,0.0,1.0,-1
3449,Bi12PtCl12,mp-582988,1,-3.6241426792,6.199948707579307,-0.9122414331648002,837.8519511783426,0.9321000000000002,9.334588,9.543044661511805,0.0,1.0,-1
3450,S,mp-583072,14,-4.108073314134615,1.6030492074431306,0.028376552740384618,3454.353885098353,2.4349,13.618254,19.11073648814521,0.0,1.0,-1
3451,FeCl3,mp-583463,149,-4.208092294166667,2.605780160714477,-1.150203341611667,620.1891076297115,0.4334,6.187586290897121,18.704710000000002,2.0,1.0,-1
3452,Nb7S2I19,mp-583476,14,-4.455663806875,4.293569440516843,-0.6481154247767859,4835.398546588455,0.4354,13.160248816048686,22.704857999999998,2.0,1.0,-1
3453,Bi6PtBr10,mp-583499,62,-3.3220653647794123,5.7268201458972205,-0.6291018959558824,5214.625015721695,1.4291000000000005,10.713038000000001,27.591238,1.0,1.0,-1
3454,W2NCl9,mp-583581,14,-5.064339641458333,3.211922709375643,-1.301557648268333,1449.1575365851322,1.7818,9.128375,17.304039000000003,0.0,1.0,-1
3455,Na3W3Cl13,mp-583762,14,-4.66407103,3.8253525009874094,-1.5525763585463157,1877.6527658338598,0.918,9.2207,25.274502,2.0,1.0,-1
3456,Li3Sn2(PO4)3,mp-585408,148,-6.56899014825,3.1246315839159817,-2.522302372285715,577.3055391530395,2.8056,10.176194533069914,10.176195048539359,2.0,1.0,-1
3457,SbS3N2Cl7,mp-585964,14,-3.7862163842307694,2.143895237263262,-0.7685339186119233,3061.857739256781,1.8175,13.236710999999998,15.419786116309785,0.0,1.0,-1
3458,TlNO3,mp-5915,62,-5.686027582,5.403459111638616,-1.075803267226,654.9108692666475,2.7867,6.4063669999999995,12.496997,0.0,1.0,-1
3459,TaTe2,mp-601823,12,-6.410150721111113,8.698118519239312,-0.3620242244444445,249.7921562989141,0.0,7.857999439511433,9.666519488746351,2.0,1.0,-1
3460,Te2Mo,mp-602,194,-5.984859553333332,6.928353178987021,-0.27411125666666675,168.31754178304604,1.1197,3.5587106367870085,15.346645,2.0,1.0,-1
3461,Tl2Sn(AsS3)2,mp-6023,147,-4.2017993845454535,4.862794652971724,-0.6664308548863638,296.9870624954951,1.0019999999999998,6.765975915652745,7.491107,2.0,1.0,-1
3462,PH9AuC3S3Cl,mp-603254,61,-4.7060134301388885,2.6964087008566247,-0.4172378728492458,1993.782900131536,2.8854,6.737617999999999,18.689212,0.0,1.0,-1
3463,Zn(BH4)2,mp-604315,26,-3.8102571531818175,1.8341805490791936,-0.12512802202666634,172.18388403349826,4.2519,4.232956,8.160898,2.0,1.0,1
3464,BN,mp-604884,187,-8.7846848625,2.128161409742348,-1.468752883273334,38.728980052455825,4.4220000000000015,2.5129795503577017,7.081536,2.0,1.0,1
3465,CoSe,mp-604908,129,-5.5708727825,5.991890344933762,-0.26875814617187554,76.42898121772052,0.0,3.6793339999999994,5.6457239999999995,2.0,1.0,-1
3466,MnSe,mp-604910,129,-6.6625631975,5.4528204674077365,-0.3337542234994615,81.55153319014968,0.0,3.613289,6.246356,2.0,1.0,-1
3467,GaSi4H30C10Cl,mp-604970,14,-5.015862261956522,1.1465351265053467,-0.3323164054208689,2131.1208026442982,3.8673,9.303169,15.880405381884492,0.0,1.0,1
3468,CdSi3PH27C9Br2,mp-604998,14,-4.933862100755814,1.538544389200465,-0.3664228700886369,2256.843058251069,3.6784,12.546058,13.801217000000001,0.0,1.0,1
3469,ZrTe5,mp-605,63,-4.544733089166667,5.4449279162561,-0.5006988758333334,444.7827258418251,0.0777000000000001,8.184967740000507,13.839632,1.0,1.0,-1
3470,GaH19C8,mp-605088,167,-5.17069941547619,1.1465002379921705,-0.2279373558790469,1607.3214756855768,3.5573,18.218291582165573,18.21829202004856,0.0,1.0,1
3471,RbPbF3,mp-605350,2,-4.5332920635,5.6410833076565625,-2.7423257547140003,411.7145987173428,4.2095,4.6851389999999995,17.836194393966753,2.0,1.0,1
3472,H24RuC8(S2Cl)2,mp-605665,61,-4.951870919807694,1.5146018120257718,-0.4072048544461546,1844.1199901283842,2.3672,8.568968,15.019503,0.0,1.0,-1
3473,Ba2LiN,mp-605860,137,-3.7951957190625,3.705102898151116,-0.37036154049083336,1059.8532553539958,0.0,8.268627,15.501686,2.0,1.0,-1
3474,Al2NiCl8,mp-605912,15,-3.771822813181818,2.1770135999494777,-1.6534504355527275,604.533856597645,0.5473000000000001,9.504934133780095,11.518015085422013,1.0,1.0,-1
3475,NbBr3O,mp-606393,113,-5.3498176195,4.064234525837835,-1.4982675937500003,569.7441319600285,1.975,4.001312,11.9327,1.0,1.0,-1
3476,CuP10,mp-606644,2,-5.336848699772727,2.6923790005261363,-0.04302458301948064,920.8986310036432,1.0431,7.247282000000001,11.938738661021564,2.0,1.0,-1
3477,Al2CrCl8,mp-607399,29,-4.267502363636364,1.9290166753457043,-1.7970471869163638,1341.4463310739693,0.8876,6.190347,15.719869000000001,1.0,1.0,-1
3478,ReCl3O2,mp-607436,58,-5.611705641666667,3.5006028862175023,-1.4954704662133338,615.8396682641929,1.8688,8.467082000000001,8.535623,0.0,1.0,-1
3479,AlC3(NCl2)3,mp-607454,2,-5.6384562825,1.813882820501972,-0.8071916399384608,1163.5573576453032,2.6079,7.458953,16.436580725577386,0.0,1.0,-1
3480,Re2Cl5O4,mp-607464,2,-5.956004538181817,3.8009901633424135,-1.5795526173909096,536.193951979171,0.6446000000000001,5.725126,11.391955322118545,0.0,1.0,-1
3481,AlTlI4,mp-607829,14,-2.7540442591666667,4.3266622364313685,-0.7201643808333333,1134.4631096414814,3.4492,8.130041,16.541697278391357,0.0,1.0,1
3482,FeSeBr7,mp-607953,7,-2.755869966666667,3.4465397481452755,-0.15315884026041676,668.8650345823157,0.0826,6.753771,14.735109926929354,0.0,1.0,-1
3483,P4S3I2,mp-608106,62,-4.250074471111111,2.713279786141929,-0.3478368848511906,1160.1129927189031,1.7917,6.9589490000000005,16.759241,0.0,1.0,-1
3484,NbSNCl6,mp-608398,2,-4.4649021780555564,2.290162631433853,-1.2371385163961108,1020.0237701799159,1.8156,6.525291999999999,13.00251002869296,0.0,1.0,-1
3485,NaHgCl3,mp-608490,62,-2.4605059495,3.8209859762994576,-1.3845288471226669,573.5443358061942,2.5237,4.197563,18.240625,2.0,1.0,-1
3486,Ti(AlBr4)2,mp-608551,58,-3.667037464090909,2.717058275888458,-1.077759646212121,905.8050325136734,0.345,6.402735,13.512877,1.0,1.0,-1
3487,BiBr3,mp-610430,14,-2.91048451,5.080780411489116,-0.7102810274999998,586.5801697721017,2.5206,7.290692,10.244327,2.0,1.0,-1
3488,BiSeCl,mp-610491,62,-3.7232248575,5.863707886469848,-0.8432926027012501,366.3261437833304,1.8415,4.191579,9.361683,1.0,1.0,-1
3489,Zr(InBr3)2,mp-610738,128,-3.744267816111111,4.27711817712151,-1.091753668333333,621.4010421705311,2.4169,7.544078,10.918416,0.0,1.0,-1
3490,O2,mp-610917,166,-4.935852455,1.4668662819670022,0.012103013750000002,36.22365456043346,1.3136,4.2052761010312985,4.205276447362289,0.0,1.0,-1
3491,Hg,mp-611219,166,-0.21932567,3.9533286686092426,0.08435469500000001,84.25495558062774,1.7609,8.027599087823768,8.027599130707635,0.0,1.0,-1
3492,AsN(OF3)2,mp-611316,12,-4.879580137,2.663374548298368,-1.9169579037020001,146.46446115120546,2.6831,4.920676781659714,6.141277267580499,0.0,1.0,-1
3493,O2,mp-611836,12,-4.937990895,1.4388402246389522,0.009964573749999595,36.92922714726946,1.3522999999999998,3.3089568672163128,4.273827509046428,0.0,1.0,-1
3494,PS,mp-612,15,-4.912246278125,1.699293239003449,-0.4691084139732151,492.8087730048909,2.5182,7.268822893759966,9.620034508109883,0.0,1.0,-1
3495,RhSe2Cl7,mp-613545,14,-3.1517586352499998,2.3311593878752843,-0.83844986900075,1450.280195183093,1.8899,8.218694000000001,14.344576000000002,0.0,1.0,-1
3496,CsCSN,mp-614311,62,-6.103475110625,2.847600440170983,-0.7165638289840093,445.4877655615508,4.3852,6.439578,8.509803,1.0,1.0,1
3497,SnS16(Cl2O)2,mp-614997,14,-4.09937258,1.8772931973995963,-0.9218010769799996,2850.199810609161,2.0416,8.906862,23.96798845915213,0.0,1.0,-1
3498,Pb2Se(NO4)2,mp-615850,31,-5.924673315769232,5.247518566583496,-1.2484061047772106,410.9759366227069,2.4867,5.627905999999999,10.501416,2.0,1.0,-1
3499,OsC3I2O3,mp-616196,12,-6.921177347222222,4.273317171840331,-0.8442108820833321,410.39762209465835,1.8225,6.8238448165312935,9.836233652340107,0.0,1.0,-1
3500,Ga3Cl7,mp-616204,33,-3.24819167175,2.562369386938648,-1.462067337282,1185.5135962674965,4.144,9.11567,12.065999,0.0,1.0,1
3501,Te4WCl6,mp-616228,15,-3.850350871590909,4.221072132138142,-0.8454021397327274,1427.162714703512,0.0,12.268348086021893,12.344437591050513,0.0,1.0,-1
3502,TlCr4BiO14,mp-616232,14,-6.434811176499999,4.4094914949607285,-1.6222514898750011,1273.3618812982202,2.0799,8.403941,17.269486999999998,2.0,1.0,-1
3503,In3Te3I,mp-616327,62,-3.120833199285714,5.290501049211068,-0.3766951142857141,1072.3850125415197,1.1366999999999998,4.407874,20.443820000000002,1.0,1.0,-1
3504,TeMoCl7O,mp-616455,14,-3.62932480275,2.7134373225494706,-1.2812681761569995,1193.8542536537213,2.4921,7.574483,13.070343,2.0,1.0,-1
3505,NbFeTe2,mp-616481,53,-6.50310704125,6.934251588253959,-0.28862959624999984,386.9355121946956,0.0,6.326664,8.124221,2.0,1.0,-1
3506,Sr15Fe10(Bi5O23)2,mp-616616,21,-6.216793823888889,6.236646920826988,-2.304285153981482,2502.013258629972,0.0,5.546359,21.405657103368284,2.0,1.0,-1
3507,Zn(InS2)2,mp-616900,160,-3.88078571,4.166459848523807,-0.9300613474999996,337.41570308719434,0.07669999999999977,25.312583995262212,25.31258441030864,2.0,1.0,-1
3508,PtO2,mp-617,164,-5.786150513333332,9.198821418850256,-0.9320709641666666,40.992192758542,1.5068,3.1641206056787716,4.727859,2.0,1.0,-1
3509,Te3WICl6,mp-617352,14,-3.709459687727273,4.123998442700669,-0.8517189845054549,1459.6360856459607,0.0,11.006155,12.040671108864734,0.0,1.0,-1
3510,PtC2(ClO)2,mp-618423,14,-6.069040717142856,3.4777736455324466,-0.9942547170028574,615.0032422386882,3.0601000000000003,6.744475,12.988174,0.0,1.0,1
3511,PbCN2,mp-619032,33,-7.283378060625,6.20194646829572,-0.07228502431499972,264.77189272988755,1.8563000000000005,3.904752,12.106439,2.0,1.0,-1
3512,ClF3,mp-619575,14,-2.510886993125,2.2825023893846548,-1.1320116485825005,538.0545996954205,2.54,4.46776,14.846462265662653,0.0,1.0,-1
3513,Zr(Se2Cl3)2,mp-619928,138,-3.963925461818182,3.0166307045403657,-1.2317025162668185,1364.6645208861155,1.3186,11.048019,11.114009,2.0,1.0,-1
3514,MoCl2,mp-620029,64,-5.782452266666668,3.3616779524289604,-1.3313372721733334,988.9857566127404,2.4697,9.389109695922613,11.564257000000001,2.0,1.0,-1
3515,V2P4S13,mp-620190,2,-5.239453874473685,2.1596219528320897,-0.7673578821005639,988.2291434407672,0.0,9.507273,11.996781320545692,2.0,1.0,-1
3516,Tl2Pt(CN)4,mp-621092,14,-7.196566157727273,5.408676823738847,0.031727044134545294,434.68270944784564,2.6965,6.333394999999999,10.050514703795523,2.0,1.0,-1
3517,TaNi2TeSe,mp-622009,62,-6.477315892999999,8.875178073232119,-0.4658632134687501,377.861642320009,0.0,3.514481,16.553136,2.0,1.0,-1
3518,ReOF4,mp-622116,15,-6.144372418333332,4.966792725971421,-2.4156402201683327,744.0809634232007,0.9323,10.032590471223472,14.89979566338552,1.0,1.0,-1
3519,Ti3(BiO3)4,mp-622198,41,-7.267177592894738,7.756213996422317,-2.520093439473684,501.6228509736448,1.7163000000000004,3.869386848436972,33.507989,2.0,1.0,-1
3520,Te6MoBr3,mp-622262,2,-3.73624591675,5.064017097547372,-0.27462309375000016,1444.4437551816752,1.0895,8.635533,14.645100943710835,2.0,1.0,-1
3521,SnHg2(SBr)2,mp-622273,14,-2.6603931942857137,3.8506483888512237,-0.5408552801785719,1283.0623085785635,2.4103,9.035094,14.492263450251135,2.0,1.0,-1
3522,Hg2Pb(SBr)2,mp-622294,14,-2.6496085367857143,4.206263507846075,-0.5724884491071429,1314.322369253672,2.3070000000000004,9.252817,14.194779993884088,2.0,1.0,-1
3523,Ti2Ag2P2S11,mp-623058,62,-5.136506364411765,3.2884965340853864,-0.990297170383404,1466.6545338863727,0.6702999999999997,6.92249,24.489835999999997,2.0,1.0,-1
3524,ReN2(OF4)2,mp-623064,62,-5.492558799038461,3.999214762910893,-1.784466216867692,661.3671587855953,0.1833,5.863041,12.488254,0.0,1.0,-1
3525,Re3(TeBr)7,mp-623087,148,-4.456317400294118,5.7816424292079285,-0.29189540941176434,1155.239717483199,1.1555,13.32806866388383,13.328068733945965,2.0,1.0,-1
3526,Re(Te4Cl3)2,mp-624000,15,-3.5326875118333327,4.558696884050198,-0.525084812804,2068.5813391779134,0.2211999999999996,8.098097782908896,32.32337753427897,0.0,1.0,-1
3527,GePbS3,mp-624190,14,-4.580331441499999,4.625705275063893,-0.8294025363750009,539.9572785365629,1.8211000000000004,6.959606,10.665164,2.0,1.0,-1
3528,P3SN4Cl5O,mp-624218,62,-5.336025243392856,1.909464881187584,-0.9047640609578056,1301.9404407486013,2.6123000000000003,8.080117,17.569614,0.0,1.0,-1
3529,Nb4Co2PdSe12,mp-624253,12,-6.055167928947368,6.047231881485849,-0.6997639662171053,423.8185393615706,0.0,6.9166812748818325,19.373951283517076,2.0,1.0,-1
3530,Ru(SCl3)4,mp-624474,14,-3.0437058576470584,1.9547025676860916,-0.7959081609776474,2224.920641033344,0.10749999999999996,11.302983,16.51777472453145,0.0,1.0,-1
3531,P2WO8,mp-624769,62,-7.267040993409092,4.156512814094875,-2.41258445314935,597.3091804431982,2.5398,5.245589,16.932055,2.0,1.0,-1
3532,Mn(ReO4)2,mp-627380,147,-8.251252075,4.450278999587159,-2.2207762168741065,828.8700964022519,3.1547,6.773802000000001,11.88671,2.0,1.0,1
3533,AgSbS2,mp-627601,9,-3.902548620625,3.637178521489007,-0.4256643763541668,536.4564476031263,1.5721,7.4457906436882855,13.579044425453393,2.0,1.0,-1
3534,Cu3BiSe2BrO8,mp-628637,59,-5.081532993666666,5.470045024372145,-1.1627511559791657,464.727084395593,0.0,6.4474050000000025,9.786381,2.0,1.0,-1
3535,AlBiTeCl4,mp-628665,82,-3.721827200714286,3.613258155161407,-1.46549648972,929.0154561340187,2.1035,10.658204143445976,10.658204143445976,0.0,1.0,-1
3536,Sr(AlCl4)2,mp-628726,13,-3.9961385140909087,2.082740343130919,-2.2496439025224246,678.0230338497063,5.2927,7.1079490000000005,12.939454051337096,2.0,1.0,1
3537,SnSe,mp-628773,63,-4.1094136925,4.783404985340077,-0.35667202617187543,137.24063017904214,0.5120999999999998,5.945988064072868,6.125123,2.0,1.0,-1
3538,BN,mp-629015,194,-8.78526619,2.0714565732532253,-1.469334210773333,39.78916181519294,4.0021,2.5159445035946244,7.258253,2.0,1.0,1
3539,InS,mp-630528,14,-3.90762202125,5.1825100558167465,-0.7952852228125002,188.25237739435056,0.43930000000000025,4.086218,11.198834,2.0,1.0,-1
3540,CdInGaS4,mp-630773,164,-3.8747576671428567,4.197485818326552,-0.9326678871428572,336.43050537743983,0.266,3.9137375394853695,25.361872,2.0,1.0,-1
3541,Fe3Pb4ClO8,mp-630866,123,-5.83826667125,7.810750962803072,-1.6332184433287509,246.56596037408661,1.2797999999999998,3.976381,15.593986,2.0,1.0,-1
3542,H2,mp-632172,139,-3.3920828000000003,0.1070731415203888,4.440892098500626e-16,31.263185576190356,9.4428,3.5226097362052475,3.5226097362052475,0.0,1.0,1
3543,HBr,mp-632229,36,-2.7663866375,2.3761612731764092,-0.3280550368099999,113.08781002460206,4.9445999999999986,4.6024888514596105,5.540272,0.0,1.0,1
3544,H2,mp-632250,229,-1.12145603,0.023670127850447698,4.440892098500626e-16,70.7103805,7.3872,4.511992353716924,4.511992353716924,0.0,1.0,1
3545,H2,mp-632291,139,-3.39133986,0.1421393070441629,4.440892098500626e-16,23.55047005074783,9.0012,3.1559621158344084,3.1559621158344084,0.0,1.0,1
3546,HF,mp-632296,36,-4.11618411,1.7215413377717068,-1.7860407124049995,38.59484955081889,6.7187,2.7868587335858988,5.18096,0.0,1.0,1
3547,Ta2H,mp-632311,115,-9.1466202,15.320903203471588,-0.16152289287333352,39.33291420620286,0.0,3.388072,3.426501,2.0,1.0,-1
3548,HCl,mp-632326,36,-3.1293465125,1.2173797345643775,-0.8825526934400001,99.4674275510652,5.9709,4.383799288493601,5.368192,0.0,1.0,1
3549,C,mp-632329,12,-9.214551855,2.0281271176628928,0.012228845000000987,19.667639561168443,0.0,2.4646862996202987,3.738129474550875,2.0,1.0,-1
3550,CdCl2,mp-632403,5,-2.56246383,3.45310232238794,-1.4189332588400003,88.15407469924192,2.8987,4.2016066625159,4.995356303439425,2.0,1.0,-1
3551,CoCl2,mp-632413,12,-4.150315213333333,3.4876563771146767,-0.9449752971733336,61.81889279234638,0.0682999999999998,3.538210479960173,5.534438175575367,2.0,1.0,-1
3552,HgS,mp-634,152,-2.3437502466666658,6.965133751288531,-0.4554151307291668,166.3999846959231,1.7241,4.437492172260927,9.7577,1.0,1.0,-1
3553,BH3,mp-634117,14,-4.24439884875,0.5749148817169997,-0.14474841000666672,159.83763732654631,5.2841000000000005,4.310509,6.6194320000000015,0.0,1.0,1
3554,NaHS,mp-634657,11,-3.62628152,1.7569317018298654,-0.950488605026111,105.97374825887596,3.1638,3.967974,6.028481078807246,1.0,1.0,1
3555,H2,mp-634659,225,-1.11598378,0.041849643466743434,4.440892098500626e-16,39.993739686668036,7.5517,3.838565931223795,3.838565931223795,0.0,1.0,1
3556,SiI4,mp-635441,205,-2.68153896375,3.2233282834592183,-0.37726606775000027,2207.79594846606,2.8561,13.021258999999999,13.021258999999999,0.0,1.0,-1
3557,Ga2I3,mp-636675,14,-2.556860431,4.400761114738107,-0.4312146610000003,785.0869416855487,2.2526,7.7551070000000015,13.705913503262012,0.0,1.0,-1
3558,Hg2ClO,mp-636805,2,-2.2395348975,7.130442831655103,-0.7128156036275,421.6365242686925,2.0573,7.090911999999999,9.82463838621183,1.0,1.0,-1
3559,AsS7IF6,mp-637112,2,-4.089508924222222,2.561114661454322,-1.4883515314898887,2101.7612242569107,1.8164,11.930099,15.930078153850124,0.0,1.0,-1
3560,TaSe2,mp-637232,187,-7.092077388333332,7.866744002588201,-0.8088771932291662,286.1175362873322,0.0,3.474896682853319,27.360883,2.0,1.0,-1
3561,Zn3(InS3)2,mp-637614,156,-3.7186955481818185,4.136047900294333,-0.980464867159092,248.2159985307693,0.006999999999999672,3.9062004916748703,18.784088,2.0,1.0,-1
3562,SeO2,mp-638005,55,-5.1585208045833335,3.718625639550373,-1.1627733328645835,396.38606311623084,3.3095,5.20779,8.772649000000001,1.0,1.0,1
3563,AlInCl4,mp-638061,62,-3.6567836679166654,2.533724619659645,-1.7380064234233334,743.4873323322662,4.2242000000000015,7.148810000000001,11.020261999999999,0.0,1.0,1
3564,P3CN4Cl7,mp-638206,14,-5.216604717166666,1.961296983457228,-0.8130391257036185,1385.5647537175007,3.7933,10.608215,13.009424000000001,0.0,1.0,1