,pretty_formula,task_id,spacegroup.number,final_energy_per_atom,density,formation_energy_per_atom,volume,band_gap,min_abc,max_abc,Dimension,Dim,is_uv
3299,ZnSi4As2(H3C)12,mp-570146,2,-5.021720958727272,1.2978480412259492,-0.3011550549149082,1299.9485825562238,2.7616,9.997024,12.748375630347107,0.0,1.0,-1
3300,ZrBrN,mp-570157,59,-7.76416901,4.498240646416017,-1.718469224126667,136.68606288470195,1.7035,3.6390160000000003,9.00388,2.0,1.0,-1
3301,HgIBr,mp-570172,36,-1.538664935,5.100486127305493,-0.3837917616666666,265.2692540369492,2.619,4.5388408560115865,13.655510000000001,0.0,1.0,-1
3302,Ga2Te2Br7,mp-570186,14,-2.8337314540909087,3.62837496619272,-0.66997885,1746.35875319456,1.3212,10.473173,14.376409200663463,0.0,1.0,-1
3303,ZrI3,mp-570188,59,-4.24258390375,4.111605829836228,-0.9626492850000004,762.3984776052682,0.19700000000000006,6.660409,14.087710999999999,1.0,1.0,-1
3304,Bi2Pd,mp-570197,139,-4.532362863333334,11.390833464839627,-0.21237938666666692,76.44346718462191,0.0,6.935065922359715,6.935065922359715,2.0,1.0,-1
3305,InBr3,mp-570219,12,-2.75600478,4.176095580222138,-0.8403889425000002,281.9432189578298,2.7596,6.934291385382142,7.143933833319358,2.0,1.0,-1
3306,NbAsPCl13,mp-570225,36,-3.655844333125,2.0808356616799784,-1.3762335828719643,1052.8868465094718,2.4431000000000003,9.788371275081056,12.11086,0.0,1.0,-1
3307,MgCl2,mp-570259,164,-3.6212896466666655,2.10483269634068,-2.2519623121733328,75.11361133116063,5.5737999999999985,3.676830705467142,6.415652,2.0,1.0,1
3308,NbSeCl3,mp-570270,13,-4.9295427865,3.26091655731831,-1.4577888969247503,566.7168781400159,0.9018,6.648759,12.138078099001506,1.0,1.0,-1
3309,SiBr4,mp-570285,205,-3.2283750202499997,2.5460974809433576,-0.8337709842500004,1814.1392577050808,4.1057,12.196172,12.196172,0.0,1.0,1
3310,MnTlCl3,mp-570300,62,-4.4875546800000015,4.618655739736184,-1.430572203887035,525.890244242322,1.9565,3.866394,14.808792,1.0,1.0,-1
3311,TlGaI4,mp-570306,14,-2.5130983816666665,4.628862767254215,-0.5987985579166665,1121.729984633662,2.5565999999999995,8.123381,16.48539445996516,0.0,1.0,-1
3312,PBr2N,mp-570315,86,-4.580920201875,2.822325779342844,-0.4210174196128573,963.912087056398,2.9781,6.784853,11.919238,0.0,1.0,-1
3313,InSb2Se4Br,mp-570321,12,-3.73570257375,5.329025714305604,-0.4069202411718749,469.948049625062,1.1209000000000002,10.852155489484103,12.436728287102039,2.0,1.0,-1
3314,AuSe,mp-570325,12,-3.476211585,8.86850715350843,-0.09131507617187527,206.65793663193435,0.0,6.57338570288706,8.835472732995159,2.0,1.0,-1
3315,AgAuCl4,mp-570340,15,-2.6169728966666668,4.331657030232633,-0.7633326549511112,342.4437362970696,0.8857999999999999,6.970062023540393,13.206997967200346,2.0,1.0,-1
3316,PbCl4,mp-570355,15,-2.837717144,2.963400154896928,-1.0921069486080004,391.13722779187515,2.1518,7.140052545127943,11.472504704791627,0.0,1.0,-1
3317,Ca5Ir,mp-570356,62,-3.38279816125,3.179360136867892,-0.23839319124999986,820.2144246079354,0.0,6.799129,15.778806,2.0,1.0,-1
3318,Tl3AsS4,mp-5704,62,-3.832271481875,5.615474924736262,-0.6277668803125,965.5819785250619,1.7009000000000003,9.278871,11.135044,1.0,1.0,-1
3319,Bi6PtCl10,mp-570417,62,-3.6120379288970574,5.243866018703899,-1.1444130266970591,4568.806629293194,1.5756,9.957811,26.937965000000002,1.0,1.0,-1
3320,CdI2,mp-570437,156,-1.9088325155555559,5.0570565313522025,-0.5851941855555557,360.75680402289436,2.4048000000000003,4.330802389052866,22.20993,2.0,1.0,-1
3321,Tl2CN2,mp-570443,2,-6.016429581333332,6.4585692767370775,-0.045423374285332815,346.16079419988466,1.9159,5.400738,10.058921913994064,2.0,1.0,-1
3322,TcBr4,mp-570480,61,-3.6686431505,3.91943089632428,-0.2869779364999999,1415.4456627620568,0.6025,6.482693,15.995966000000001,1.0,1.0,-1
3323,Se,mp-570481,14,-3.49591147765625,3.438407241333924,0.0,2440.500485179196,1.6545,10.153863000000001,15.739181715003642,0.0,1.0,-1
3324,NbP2Se2Cl5,mp-570486,14,-4.494732823500001,2.4566543853133522,-1.0758373633130358,2649.876186444693,1.3236,6.877664,27.950965807703643,0.0,1.0,-1
3325,TaPNCl7,mp-570489,14,-4.8602510065,2.6023972535615942,-1.4602017548771429,1210.0542724796123,3.1658,6.903638000000001,15.525027976733375,0.0,1.0,1
3326,ZrI2,mp-570506,31,-4.75792829,5.3553603770736125,-0.8926863366666667,427.93809252249224,0.2976000000000001,3.7764089999999997,16.364335999999998,2.0,1.0,-1
3327,LiWCl6,mp-570512,146,-4.32210653125,3.100202717456655,-1.523337131611667,864.4929559750975,0.0,9.588894767570348,9.588895488715787,2.0,1.0,-1
3328,ZrHg3(SeCl3)2,mp-570520,14,-3.314125750416667,4.987771570208067,-1.3163198720206253,708.2130621359686,2.5952,6.785931,13.503685879169025,2.0,1.0,-1
3329,NbP2NCl12,mp-570531,15,-4.0874293190625,2.02075919705376,-1.342019277102679,976.7148203789227,2.4316,8.319674740677426,15.926426667520404,0.0,1.0,-1
3330,Zr(SeCl6)2,mp-570544,43,-3.337599544666667,2.3781733144988344,-1.2985505242538338,942.0393683822721,2.8096,9.106449805244193,13.157203899782507,0.0,1.0,-1
3331,Te3Pt2,mp-570562,12,-4.694373608,10.23199784997243,-0.3800299660000001,250.88816085611805,0.0,4.059483433746836,17.729893779178514,2.0,1.0,-1
3332,W2NCl8,mp-570568,2,-5.284541158181818,3.517732053356179,-1.293674527132727,314.0587151096273,0.16300000000000006,6.7036729999999976,7.054563226642243,1.0,1.0,-1
3333,P4N3Cl11,mp-570583,13,-4.310790069722222,1.5147359124748123,-1.0161833612380948,2437.6277982250267,2.4877,11.530486999999999,15.27227274079192,0.0,1.0,-1
3334,SeBr,mp-570589,41,-2.65335850375,3.6389186715224646,-0.0869394949218747,289.9761188297981,1.5484,4.469745559071678,15.112225,0.0,1.0,-1
3335,TlGaCl4,mp-570609,62,-3.28653969875,3.588020036843122,-1.5523476338400002,769.9495304619513,4.3067,7.2462050000000024,11.017141,0.0,1.0,1
3336,TaI5,mp-570679,62,-3.700698169375,4.8198626746902296,-0.4543913852083339,2247.566399225373,1.1727,7.124536999999999,20.917251,0.0,1.0,-1
3337,NbI3,mp-570722,193,-4.12598529375,4.3384468230201545,-0.4576495725000002,362.5556315854074,0.0,6.783403999999999,7.855940337224817,1.0,1.0,-1
3338,SbCNCl6,mp-570727,62,-3.988496797222224,2.1816250372659525,-0.7850123541044446,1097.5611020302363,1.9675,8.082896,13.40851,0.0,1.0,-1
3339,GaI2,mp-570738,161,-2.500438337777778,3.91128889686255,-0.4750647602777782,1648.2671768700088,2.3838,15.839489064731257,15.839489301977196,0.0,1.0,-1
3340,N2,mp-570747,136,-8.3291500425,1.0563212303584673,8.881784197001252e-16,88.074240584006,6.7967,4.061881,5.338196,0.0,1.0,1
3341,H2,mp-570752,194,-1.11206167,0.038512799428188985,0.0,86.91779209193203,6.6942,3.811892,5.1311972899909035,0.0,1.0,1
3342,VCl4,mp-570763,13,-4.43859812,1.273740555936419,-1.6187361246080003,1005.1488601258296,0.0,6.5986080000000005,13.468432342201742,0.0,1.0,-1
3343,Cl2,mp-570778,138,-1.813558165,0.8294266336799658,0.0,1135.6489244522654,2.6885000000000003,8.203525,11.765808999999999,0.0,1.0,-1
3344,SbCl5,mp-570796,14,-2.87328245,2.385375464053205,-1.1402397627166672,1665.2898526803656,1.852,10.138380999999999,13.444282954641688,0.0,1.0,-1
3345,Cu2P8Se3I2,mp-570817,57,-4.471233251166667,3.4080276395311184,-0.13520259154017916,1686.9751917777085,1.3438999999999997,9.437791,13.917832999999998,2.0,1.0,-1
3346,Y(AlCl4)3,mp-570857,151,-4.203837569791667,1.8351086418327731,-2.1569994245283337,1615.9747871252564,4.0351,10.787641983604429,16.034333,1.0,1.0,1
3347,AgCl,mp-570858,63,-2.7313847675,5.535539260668696,-0.6881812774633334,85.98636572337942,0.5508000000000002,3.9443449999999998,6.074320527814201,2.0,1.0,-1
3348,Nb(Te2I3)2,mp-570873,2,-3.1709003068181816,4.497383607444868,-0.278301720454545,1007.7827429862227,0.8167,8.324703999999999,12.347920849615376,0.0,1.0,-1
3349,RuCl3,mp-570880,59,-4.24782727625,3.2560649510375286,-0.9888416299449999,423.14138473928915,0.0,5.675559,11.308117,1.0,1.0,-1
3350,TeI4,mp-570884,62,-1.9698137235,4.305102807150928,-0.12194344550000018,3920.200386539487,1.7639000000000002,14.694891,17.530499,0.0,1.0,-1
3351,BeI2,mp-570886,72,-2.8394270566666666,3.5881790810132945,-0.5769476916666667,243.25694496017132,4.0802000000000005,7.554103032049537,7.554103032049537,1.0,1.0,1
3352,MgCl2,mp-570922,115,-3.53821721,1.803984237242816,-2.1688898755066663,87.64022534459221,4.9061,3.9334830000000003,5.6643349999999995,2.0,1.0,1
3353,Bi2Pb2Se5,mp-570930,164,-4.089224136666667,7.619754526999864,-0.4575663424131946,267.42967141258214,0.4120999999999997,4.277831839679653,16.874523999999994,2.0,1.0,-1
3354,Ti(AlCl4)2,mp-570951,14,-4.183097583636363,1.9003457901696128,-1.8724201754012129,673.6264072379421,0.08469999999999978,6.054295,14.223920624336493,1.0,1.0,-1
3355,SbI3(BrCl3)2,mp-570962,2,-2.310536583333333,2.9890374225488996,-0.6857034145466668,486.0998703448587,1.1707,7.668201,8.088470474900184,1.0,1.0,-1
3356,ZrP2NCl11,mp-570966,64,-4.2331181251666665,2.023595811184872,-1.4918444395255246,1828.7999485528687,2.8614,11.099991733386336,16.277779000000002,0.0,1.0,-1
3357,RuCl3,mp-570997,151,-4.220616557916666,3.262634512399371,-0.9616309116116668,633.4340363348837,0.0,6.059941378661184,19.917457000000002,2.0,1.0,-1
3358,CuP4Se4I,mp-571015,64,-4.270831749,3.472253891312498,-0.1448308848660716,1205.4967229933804,1.6639,9.83523969541241,12.609005,2.0,1.0,-1
3359,NiSe,mp-571033,129,-4.86380253,6.304109992126636,-0.225778451171875,72.51740487897398,0.0,3.6543900000000002,5.4301580000000005,2.0,1.0,-1
3360,OsCl4,mp-571035,65,-4.10847704,4.000113959527801,-0.8599293686079996,137.83825119249457,0.0,3.6293849999999996,6.1723451884718825,1.0,1.0,-1
3361,Nb3Se10Cl3,mp-571061,11,-5.1419754978125,4.173122848928584,-0.8279390711385934,1869.677948878811,1.0930000000000002,7.811681,19.292865,1.0,1.0,-1
3362,TiBr3,mp-571065,148,-4.3807969625,3.9411944692560215,-1.1792290533333336,242.33067815296403,0.0,7.638801532338237,7.638801768039932,2.0,1.0,-1
3363,TlCl,mp-571079,63,-3.10327341,6.093348922420005,-1.29552143163,130.71877248763477,2.659,4.81795,6.585353077103915,0.0,1.0,-1
3364,FeCl2,mp-571096,164,-4.76907315,3.183900058250169,-1.1098382055066671,66.10602826091561,0.6234000000000002,3.5141587786328037,6.181128,2.0,1.0,-1
3365,FeI2,mp-571122,164,-3.939835763333333,5.062751444486546,-0.1004930600000004,101.56383739845259,0.4522,4.010872828502544,7.290054,2.0,1.0,-1
3366,NbSe2,mp-571133,187,-6.539046980833334,5.587610112255523,-0.8413376490625003,298.1646854781909,0.0,3.4931736329444028,28.215334000000002,2.0,1.0,-1
3367,TiCl3,mp-571143,193,-4.9711875999999995,2.2774261636135877,-2.056926363278334,224.9015157348512,0.03240000000000043,5.721476,6.737159385675911,1.0,1.0,-1
3368,SnICl,mp-571146,62,-3.204271085,4.445907320757535,-0.9417926027533337,419.9129496976547,2.5128000000000004,4.431985,10.510224000000001,1.0,1.0,-1
3369,Mg(BH4)2,mp-571156,26,-4.027165156818182,0.8128875478036385,-0.3110781674812118,220.5800000954261,6.0803,4.311885,8.390713,2.0,1.0,1
3370,InBi2Se4Br,mp-571169,12,-3.74317497375,6.4412845798976175,-0.4741343736718751,478.7394081114564,1.3432000000000004,10.832164149377027,12.349300656437919,2.0,1.0,-1
3371,AlTeCl7,mp-571179,2,-3.2266518855555555,2.2320189714741234,-1.4860037080911108,1198.5316129744695,3.1497,6.7942789999999995,20.34757803592479,1.0,1.0,1
3372,YGaI,mp-571210,164,-4.7318865400000005,5.048622771821245,-1.059026796388889,187.82913840281142,0.0,4.208972280750373,12.242785000000001,2.0,1.0,-1
3373,PNCl2,mp-571213,86,-4.933022128125,1.870374845648976,-0.9646571274928566,823.0820592512248,3.8549,6.3293,11.403646,0.0,1.0,1
3374,Tl3BiI6,mp-571219,14,-2.6046032285,5.978534698929383,-0.5926963345,1759.3330769986014,2.4866,9.27899,14.016481416816278,2.0,1.0,-1
3375,ZrI4,mp-571235,13,-3.8534212273333335,4.166536162586308,-0.9246710093333336,1431.9813355546617,2.0148,8.852047,18.548254393438754,1.0,1.0,-1
3376,GeBr4,mp-571246,205,-2.84562493175,2.960611264422317,-0.6114781287499997,1760.059268666855,2.9647,12.073757,12.073757,0.0,1.0,-1
3377,TaP2Se2Cl5,mp-571250,14,-4.737140995375,2.870802358320536,-1.1425982761880362,2675.001549154313,1.9,6.912076,27.979613953571853,0.0,1.0,-1
3378,MoCl5,mp-571256,12,-4.1367753488888885,2.609380674911724,-1.2842923632722218,1043.1614981722832,0.0,6.340280167800553,12.859530561227574,0.0,1.0,-1
3379,Tl2ZnN12,mp-571259,29,-6.7116299835,4.291625344307119,0.04921773792933474,994.0207666756932,2.9658,6.667313,20.883561,0.0,1.0,-1
3380,AlInI4,mp-571260,11,-2.7373010991666664,3.877024253545701,-0.638416095833333,1112.5883395024923,3.0259,7.445975,12.509589267165447,0.0,1.0,1
3381,GaCl3,mp-571266,2,-3.2493148975,2.0507330196534626,-1.55190278932,285.1575871875024,4.3149,7.116952,7.291942650446037,0.0,1.0,1
3382,NbSe2,mp-571270,187,-6.522310805833333,6.017903543754724,-0.8246014740624995,276.84525010780567,0.0,3.4799866228331964,26.396804,2.0,1.0,-1
3383,ZrI2,mp-571279,11,-4.757812388333334,5.390175004369667,-0.8925704350000002,425.17408111564947,0.2466,3.7753339999999995,16.32497483166513,2.0,1.0,-1
3384,Hf(SeCl6)2,mp-571313,43,-3.4511909056666665,2.7674033277762637,-1.3181760039205,914.2686452931958,2.7944,9.005478029224934,13.066776266689502,0.0,1.0,-1
3385,CNCl,mp-571324,15,-6.440044226666667,1.6533442580006,-0.29567627187999945,370.42739337166495,3.7938,7.659546781391834,8.275583682556839,0.0,1.0,1
3386,TiCl3,mp-571377,12,-4.935208475416666,2.458354042436796,-2.0209472386950003,625.0482078608966,0.0,6.098091514598481,19.337942287675236,2.0,1.0,-1
3387,InGa2Cl7,mp-571379,33,-3.264982274,2.6142553944630262,-1.506499116782,1276.5592033498176,3.8337,9.380463,12.41315,0.0,1.0,1
3388,TiCl3,mp-571424,15,-4.945243805,2.47343237397936,-2.030982568278333,414.1585608397776,0.01929999999999988,6.1314537816097925,12.701450418853431,2.0,1.0,-1
3389,SnI4,mp-571436,215,-2.375880722,3.4791113138617904,-0.3547562590000002,298.9389586636472,1.7788,6.686428,6.686428,0.0,1.0,-1
3390,YI3,mp-571442,148,-4.19697799375,4.011727989975693,-1.4373507541666668,388.7706891426143,3.0589,8.77045532410091,8.770456177015253,2.0,1.0,1
3391,HfHg3(SeCl3)2,mp-571445,14,-3.4577587808333337,5.4347180637102595,-1.3424955507706249,703.2972339202075,2.5702,6.754917,13.479364169396307,2.0,1.0,-1
3392,PbIBr,mp-571465,62,-3.0521103891666663,6.245279887892443,-0.760914980833333,440.3179685644435,2.5906,4.518389,10.879502,1.0,1.0,-1
3393,NbCoTe2,mp-571471,14,-6.2514453975,7.182074837806832,-0.3773892237500007,376.4400294921794,0.0,6.371693,8.428345493504938,2.0,1.0,-1
3394,Ga(BiBr)4,mp-571502,33,-3.2768266466666667,5.711864354621018,-0.4839445463888887,2849.637829959638,1.5866,10.562186,19.015420000000002,0.0,1.0,-1
3395,WCl6,mp-571518,148,-4.288860367142857,2.8790235070981645,-1.362970034222857,228.7234020664459,1.9169,7.133109893541036,7.133110251038112,0.0,1.0,-1
3396,Sb2TeSe2,mp-571550,166,-3.86695299,5.728494578527522,-0.1883277169374999,153.35470353537022,0.5558999999999994,10.516915350009288,10.516915628504632,2.0,1.0,-1
3397,InCl,mp-571555,63,-3.112236255,4.0187681420819645,-1.10946890163,124.18276310301222,1.6975000000000002,4.518199,6.597517858966127,0.0,1.0,-1
3398,HgBr2,mp-571558,143,-1.62375467,5.884107450475566,-0.4312435216666669,305.1210214436881,1.6827,6.826969,7.1838422868504725,2.0,1.0,-1
3399,InCl,mp-571636,36,-3.11198462,4.002542522245486,-1.10921726663,124.68617869276657,1.7157,4.544146,6.5994560851155,0.0,1.0,-1
3400,SbS8Cl5O,mp-572131,62,-3.7749657245,2.0591732899674327,-0.9464430226699998,1843.5977372481693,1.4808,9.473583999999999,17.609455,0.0,1.0,-1
3401,TlMo2Cl7O2,mp-572192,59,-4.32684155125,3.285699060091776,-1.4719059833600008,683.7166569113424,2.4263,7.234574,9.844603,0.0,1.0,-1
3402,Cu3Te2(BrO3)2,mp-572313,12,-4.687525336153846,4.762207043018697,-1.0465970467307693,244.65643880204757,0.0,5.734103559755441,8.367219766984253,2.0,1.0,-1
3403,CrCu(PS3)2,mp-572465,14,-5.2059706635000005,2.8189596294957946,-0.6642941570892859,871.5265861415346,0.13359999999999994,5.985366,14.530433245846085,2.0,1.0,-1
3404,SbBr(OF3)2,mp-572526,13,-4.15141073,3.480281812482345,-1.8733547779640003,331.7500037154141,1.9974000000000005,5.961199,10.284952633902646,0.0,1.0,-1
3405,SbPS4,mp-572597,2,-4.611601314027777,2.665293353861949,-0.7058935525396824,2100.7869258180144,2.0906,6.387481,23.78762486652566,1.0,1.0,-1
3406,B2S3,mp-572670,14,-5.58043405025,1.6538087986817678,-0.8248834217916666,946.3717032612446,2.4329,4.546108,19.27592096992061,2.0,1.0,-1
3407,SbSeCl7O,mp-572726,14,-3.166641731125,2.3976103965670874,-1.101888228766375,2575.7935384084417,1.9449,12.866041000000001,15.211542999999999,0.0,1.0,-1
3408,ReS2,mp-572758,2,-7.474473506666666,6.7333763127553,-1.010971200416667,246.94557322036374,1.4464000000000006,6.4191,7.044662512543451,2.0,1.0,-1
3409,TaP4(SCl)5,mp-572763,14,-4.868565372166667,2.3039515796529235,-1.058890352580714,1852.0961708317325,2.136,7.302355,18.74992964747252,0.0,1.0,-1
3410,ReP(Cl2O)3,mp-572794,14,-5.011165357272726,2.6666710935731057,-1.5459003288074025,1190.3478867311615,1.8661,6.5791460000000015,14.204797985303173,0.0,1.0,-1
3411,GeS2,mp-572892,14,-4.594256235625,2.567911043269645,-0.7379203727083331,1415.0766085710327,2.2648,6.8561,16.427332,2.0,1.0,-1
3412,WSCl4,mp-572970,14,-4.880682056875,2.9039457571945686,-1.3062620162358332,1636.4026134174192,1.9731,9.605947,13.637977,0.0,1.0,-1
3413,ReO3F,mp-573051,13,-7.522540945666666,5.2478978903439035,-2.2021262006546656,480.7118778257306,3.0425,6.323008,10.921253707347384,1.0,1.0,1
3414,WSeS2Cl5,mp-573078,15,-4.3495282744444435,2.9962339748165387,-1.0529424338770836,1117.7171098403971,2.2777,10.194723495409768,14.45990949939162,0.0,1.0,-1
3415,TePdI2,mp-573321,2,-3.08740601,5.923699568719312,-0.24460401749999994,273.49766924901627,0.5458000000000003,4.439126,9.287069448066436,2.0,1.0,-1
3416,Nb2Se17Cl12,mp-573340,2,-3.79904337516129,3.168301420603868,-0.7448718615794758,2047.7705966820715,1.3182,11.986505000000001,13.885997378826918,0.0,1.0,-1
3417,PICl8,mp-573373,74,-2.6443839955,2.16440597703022,-0.9475733664651428,1354.8875987360307,1.6868,12.295074787297555,12.295074787297555,0.0,1.0,-1
3418,Bi8SbAuBr9,mp-573727,14,-3.2606527451315785,6.931584705863929,-0.4577318967105266,2596.561957677229,1.1646,10.93721,15.586623999999999,2.0,1.0,-1
3419,AlTeCl7,mp-573751,14,-3.227407775833333,2.2199584577153897,-1.4867595983688888,1205.0429541927335,3.2818,6.747966,14.374804924206867,0.0,1.0,1
3420,ReI3,mp-573815,11,-4.319555624583333,5.676465752308041,-0.06541436708333315,995.048887320552,0.9580000000000002,9.424536999999999,11.455287,1.0,1.0,-1
3421,Tl10Hg3Cl16,mp-573974,87,-2.7500428851724137,5.8380259169521285,-1.2124847292124137,913.8473649411557,2.6482,13.663933574790056,13.663933574790056,2.0,1.0,-1
3422,SiBr4,mp-574086,14,-3.2282715185,2.5233342586073007,-0.8336674825000003,915.2523844923936,4.2666,7.340151,11.381128135242875,0.0,1.0,1
3423,Ti(AlCl4)2,mp-574112,15,-4.21645779090909,1.923588849795528,-1.9057803826739401,665.4868618508461,0.3207,9.8036756602226,11.860505773700087,1.0,1.0,-1
3424,TiGeTe6,mp-574169,12,-4.224943801875,5.812934873674097,-0.3026531204166667,506.2555568449746,0.4316000000000004,7.727403393319647,17.82728716744881,1.0,1.0,-1
3425,Nb2CS2,mp-5745,164,-8.388699482,4.974194642185184,-1.11362537925,87.44811678096096,0.0,3.2899600541831813,9.329075,2.0,1.0,-1
3426,Al(SeCl2)2,mp-574529,55,-3.560662882857143,2.374069336487537,-1.310262498246786,1828.1541691957239,1.3831,9.352022,13.990362,0.0,1.0,-1
3427,Tl4Pd3Cl10,mp-574580,122,-3.3077870433823526,5.106152195792845,-1.1004478011823526,1939.9346823757635,1.1367,13.664421094022828,13.664421094022828,0.0,1.0,-1
3428,AgNO2,mp-5770,44,-5.41656055,4.04146482234625,-0.5974707678866666,63.22294054361002,1.77,4.513498844909679,4.513498844909679,1.0,1.0,-1
3429,SbPb2S2I3,mp-578882,14,-3.54563943375,5.941181299600147,-0.6616003139062498,1096.7478719307567,1.7237999999999998,7.804178,16.748202,2.0,1.0,-1
3430,P4S9,mp-579224,206,-4.6971802831730765,1.6396585311081455,-0.6271762641277471,3341.8628130291704,2.7138,16.313112684990564,16.313112684990564,0.0,1.0,-1
3431,Y16B4C8I19,mp-579614,2,-6.020314679468084,4.105252751723612,-1.0638978670921984,3214.0945324326176,0.2362000000000002,12.607433,19.842861578672647,2.0,1.0,-1