,pretty_formula,task_id,spacegroup.number,final_energy_per_atom,density,formation_energy_per_atom,volume,band_gap,min_abc,max_abc,Dimension,Dim,is_uv
1180,Nb4H3S8,mp-1220559,187,-6.432821483333332,3.964102138829848,-1.2389315447240004,264.3931235887676,0.0,3.3574038659674232,27.083971000000002,2.0,1.0,-1
1181,Nb3WSe8,mp-1220566,8,-6.7108134974999984,6.236911827740363,-0.7750357132291666,291.3343799556481,0.0,5.975093468490095,14.322600952758615,2.0,1.0,-1
1182,Nb4FeS8,mp-1220569,12,-7.295370287692307,4.830837984159191,-1.3985132126923088,235.1130349161841,0.0,5.760269911142446,12.615997590797052,2.0,1.0,-1
1183,Nb5V3S20,mp-1220583,8,-6.539292277142858,3.709187473705197,-1.2815051075892856,563.4786967341707,0.0,9.696344777116892,10.39535531882552,2.0,1.0,-1
1184,Nb4AgS8,mp-1220596,160,-6.8028001023076925,4.535408211703199,-1.3395927870512825,269.4750899069841,0.0,3.3825224771719817,27.266122531684807,2.0,1.0,-1
1185,Nb4V3FeSe20,mp-1220619,6,-5.838594601428571,5.7820300407772764,-0.6226956441741059,620.1845752354637,0.0,3.491557,18.777352688504838,2.0,1.0,-1
1186,Nb3WS8,mp-1220620,160,-7.309907799166666,4.917196303602844,-1.3894110887499995,242.83329975503318,0.0,3.3173563729133777,25.55152118303761,2.0,1.0,-1
1187,Nb3S4,mp-1220631,164,-7.733563405714285,5.4305973607898785,-1.4198670360714285,124.44390853586964,0.0,3.311092185097841,13.106914999999999,2.0,1.0,-1
1188,Nb2Tc,mp-1220634,69,-10.305733433333334,9.224802959508164,-0.1179901033333337,51.08858992958882,0.0,2.8474816452525205,7.142706222308531,1.0,1.0,-1
1189,Nb5S8,mp-1220654,149,-7.525058685641026,4.821036346788612,-1.502716829102565,745.0689620668753,0.0,5.815987691603638,25.434245999999998,2.0,1.0,-1
1190,Nb3MoSe8,mp-1220663,6,-6.547164288333334,6.030603141838688,-0.7874267907291674,277.0975666803952,0.0,3.446529,13.62738354892123,2.0,1.0,-1
1191,Nb3IrSe8,mp-1220676,12,-6.238014815,6.608689849625816,-0.6455450348958323,277.0499475077292,0.0,6.841036049570563,9.025740886849011,2.0,1.0,-1
1192,Nb2Pd,mp-1220678,69,-8.69291335,9.433924184220338,-0.2320827199999999,51.43818256797302,0.0,2.824062133127563,6.875164574815064,2.0,1.0,-1
1193,Nb2Se3,mp-1220681,156,-6.931231126,4.9574913404142364,-0.7931622234062502,141.5832712458816,0.0,3.453667805804721,13.706298,2.0,1.0,-1
1194,Nb2CuSe4,mp-1220686,156,-6.172884902857143,6.220427979908341,-0.7035330941964284,150.87942894046768,0.0,3.5391354081166493,13.909291,2.0,1.0,-1
1195,Nb2CuS4,mp-1220691,156,-6.750414845714286,4.7687939324347015,-1.2941611003571427,131.49041710445846,0.0,3.3865313567779047,13.23894,2.0,1.0,-1
1196,Nb3IrS8,mp-1220692,12,-6.7984696425,4.952070503553588,-1.2212809362500003,243.93217722591075,0.0,6.703568884428727,8.537505366195969,2.0,1.0,-1
1197,Nb2VFeSe10,mp-1220694,6,-5.7751840250000015,5.9023728011462016,-0.5812101816741081,304.45961473776083,0.0,3.494726,10.105355122550273,2.0,1.0,-1
1198,Nb2AgS4,mp-1220696,156,-6.52797038,4.814338811255161,-1.2526667298809528,145.533888524983,0.0,3.3965826079178467,14.566298000000002,2.0,1.0,-1
1199,Nb3(IrSe5)2,mp-1220701,2,-6.12092026,6.671304966150501,-0.5915942108958329,361.60141911302895,0.0,5.798063,9.257856190927413,2.0,1.0,-1
1200,Nb5V(FeSe10)2,mp-1220702,1,-5.809211646428572,5.766988308753128,-0.5789021256026784,635.2973900182112,0.0,6.9595119999999975,10.839460430742898,2.0,1.0,-1
1201,Nb3FeSe10,mp-1220711,6,-5.87828767642857,5.985110911846018,-0.6116424781026788,311.89371412417665,0.0,3.5316769999999997,10.211651360348824,2.0,1.0,-1
1202,Nb4P2S21,mp-1220713,5,-5.662121158518517,2.7011522458130295,-1.0634330441765871,1360.9850160922933,1.1923999999999997,13.194044293436185,14.09341285342092,2.0,1.0,-1
1203,Nb2FeS4,mp-1220734,164,-7.3307551885714295,5.359052796250515,-1.2501019846428574,114.62154139233981,0.0,3.3450358678674883,11.828619,2.0,1.0,-1
1204,Nb3Fe(Se4S)2,mp-1220747,6,-6.015003154285713,5.584227259087802,-0.7516324717857147,306.39449888074034,0.0,3.5008,10.112701667944133,2.0,1.0,-1
1205,NaHf8(NCl)8,mp-1220797,10,-8.3126991952,6.8737751534393166,-2.127789261938133,446.0911796111504,0.0,3.6327279999999997,19.81168793796523,2.0,1.0,-1
1206,NaBi3(ClO2)2,mp-1220820,38,-5.020429655,6.799280895490654,-1.772917757485334,191.6744554518921,2.3702000000000005,5.568328,6.776946099143553,2.0,1.0,-1
1207,NaBi3(BrO2)2,mp-1220821,38,-4.916420811,7.135876664459821,-1.5922938008333332,203.3210179251784,2.2883,5.63169,6.999685260424571,2.0,1.0,-1
1208,NaBi3(IO2)2,mp-1220823,38,-4.787071398999999,7.302014013917358,-1.4855271738333335,220.07160453414696,1.8963,5.710986,7.3233029556186615,2.0,1.0,-1
1209,Nb2Bi3Pb2ClO11,mp-1220834,123,-6.734745794736843,7.756722629754464,-2.142420621947895,307.971834630426,1.1235000000000004,3.944293,19.795782,2.0,1.0,-1
1210,Nb3Pb2O7F5,mp-1220840,44,-7.280916344117648,5.786490620904534,-2.8955270376294115,258.30211478382455,0.0,17.009959555925874,17.009959555925874,2.0,1.0,-1
1211,NaSr2(SnAs)6,mp-1220888,12,-4.2459378333333335,5.394949896618382,-0.4655540811111114,418.6072785287036,0.0,7.2454060953232995,9.521308523978883,2.0,1.0,-1
1212,NaAl6Sb7(TeCl3)8,mp-1220960,1,-3.7074320189130434,3.199015087954641,-1.3611288285124636,1509.9315895222721,1.4673,11.960742999999999,12.748294425587373,1.0,1.0,-1
1213,MoW,mp-1221387,65,-11.90766013,14.423725877321232,-0.00577537999999933,32.2098204031891,0.0,2.7566814830054267,4.500382,2.0,1.0,-1
1214,Na(NbS2)2,mp-1221395,156,-6.564983099999999,3.8816075074527814,-1.5065228479761916,144.194253716224,0.0,3.4098421776294865,14.32019,2.0,1.0,-1
1215,Na(NbSe2)2,mp-1221396,156,-6.001397782857143,5.244368499086304,-0.929839467529762,166.11903149465118,0.0,3.5474304346174286,15.242669,2.0,1.0,-1
1216,MoSeS,mp-1221404,164,-6.918229416666668,5.2426495464143095,-0.980047958489584,131.10678670250735,1.2358000000000002,3.2579701863967387,14.262654000000001,2.0,1.0,-1
1217,Na(VSe2)2,mp-1221410,160,-5.516656364285715,4.45838415549717,-0.7357834689583334,164.14484374043448,0.0,14.579632635510269,14.579632995481234,2.0,1.0,-1
1218,MoCl6,mp-1221436,162,-3.8614817271428565,2.4325869656413004,-1.2373747427942858,210.69695532282964,1.1308,5.8550889999999995,6.446100558296387,0.0,1.0,-1
1219,N2O,mp-1221446,198,-7.1657820716666665,1.349488534741376,-0.44891212366999983,216.63014378839142,6.2407,6.005829,6.005829,0.0,1.0,1
1220,MoCl2O,mp-1221455,71,-5.1196063725,3.2683170769123846,-1.6026037594425002,92.89855381318714,0.0,7.047093752504997,7.047093752504997,2.0,1.0,-1
1221,Mo2SeS3,mp-1221485,156,-7.076534308333333,4.787235172196771,-1.142173118619791,127.31272527600807,1.0635000000000003,3.2217438714038087,14.163127,2.0,1.0,-1
1222,MoCl6,mp-1221487,164,-3.8617373119047618,2.4102398451695515,-1.2376303275561906,637.951448996854,1.0791,5.893962999999999,11.179562263979122,0.0,1.0,-1
1223,MoCl3,mp-1221495,12,-4.88524110875,3.4954289934101714,-1.2334421186949998,384.4167834819973,0.0,5.829299190370143,13.093678599992053,2.0,1.0,-1
1224,Mo2C,mp-1221498,164,-10.352794533333332,8.897585334040542,-0.046772279999999,38.05172526653037,0.0,3.073101653225451,4.6525370000000015,2.0,1.0,-1
1225,MoCl4,mp-1221517,162,-4.37943557,3.3633842230868933,-1.2072261826080004,352.1421799974504,0.0,5.764973189264457,12.234685,2.0,1.0,-1
1226,Mo2N,mp-1221525,166,-10.228113316666667,9.34060625269432,-0.3468605674599997,36.601790011728326,0.0,5.275433419937362,5.275433458830942,2.0,1.0,-1
1227,MnTlCuSe2,mp-1221565,119,-4.873966908,6.885717689145439,-0.3510890928685342,115.9452369588034,0.058599999999999326,7.703261168254521,7.703261168254521,2.0,1.0,-1
1228,MnZn(InS2)4,mp-1221721,8,-4.456225887142859,4.1701905561921855,-0.9410756060467982,332.94438962038845,0.0,6.777326948724547,12.779889745835606,2.0,1.0,-1
1229,MnIn2(SeS)2,mp-1221756,160,-4.744429774285714,4.3441116066852175,-0.6583045429418105,193.65732167349827,0.0,13.797914841610014,13.797914980370223,2.0,1.0,-1
1230,Mn2N,mp-1221793,164,-9.100126,6.765493316110952,-0.3414976238967817,30.406092041290282,0.0,2.8242717408877285,4.401665,2.0,1.0,-1
1231,Mn3Fe9C4,mp-1221888,1,-8.74137690875,7.879830305951954,0.047514849439654235,150.77132978807242,0.0,4.457223488104336,6.743630610000078,2.0,1.0,-1
1232,Mn2CrI6,mp-1221924,12,-4.520066451111111,4.71448744493296,-0.39556243992337176,325.2048274952836,0.0,4.186615905843883,21.785092968347712,2.0,1.0,-1
1233,MgIn2,mp-1222037,139,-2.41207518,5.640466959850701,-0.044192676666666784,74.75958180643825,0.0,7.043291738336415,7.043291738336415,2.0,1.0,-1
1234,MnBi12W2(ClO8)3,mp-1222044,8,-6.007657062619049,8.429493282155963,-1.7925845588189324,673.8544499036004,0.5895999999999999,8.905098677986336,15.504819309053554,2.0,1.0,-1
1235,Mn2In2Se5,mp-1222074,166,-5.029305208888889,5.195966363253648,-0.43971212122545467,234.67317285675244,0.0,16.55933751819438,16.559338073484366,2.0,1.0,-1
1236,Mg(InSe2)2,mp-1222200,166,-3.7423656614285714,4.787352922469762,-0.7298951727678568,197.633979618596,0.0,13.514128706239038,13.514129543482149,2.0,1.0,-1
1237,LiZr4(NCl)4,mp-1222362,166,-7.582552815384616,4.170964502866723,-1.9729360427610256,226.7986027084237,0.0,19.43607019056077,19.436070199030077,2.0,1.0,-1
1238,LiBi3(ClO2)2,mp-1222452,38,-5.111672967,6.801543132199591,-1.8047340044853333,187.6925324054348,2.5888000000000004,5.514286,6.7605818550352605,2.0,1.0,-1
1239,Li(TaS2)2,mp-1222716,164,-7.212606818571428,6.5492702540099375,-1.567401447976191,126.03672742850776,0.0,3.3596842661399,12.893463,2.0,1.0,-1
1240,Li2GeSb2Te5,mp-1222750,160,-3.5733755130000002,5.496744050636115,-0.331837441166666,292.44067839097784,0.02629999999999999,18.140343987719003,18.140344641498658,2.0,1.0,-1
1241,KNbCl6,mp-1223400,160,-4.22108368,2.009333906194372,-1.87923244907,284.88320209915236,2.2532,7.479909207305794,7.479909687752253,2.0,1.0,-1
1242,KMg3AlSi3(O5F)2,mp-1223512,1,-6.901528857000001,2.747400162489896,-3.3400032598940004,254.60034829325818,0.0,5.364008258521326,10.368308496108996,2.0,1.0,-1
1243,KMg2AlFe(SiO4)3,mp-1223578,1,-7.0086809297500015,2.9179507617049,-2.95780765765,1017.0185545544302,1.1318,9.233407536610576,11.403354733507724,2.0,1.0,-1
1244,KFe4(SiO4)3,mp-1223588,1,-7.075022880500001,3.411944555873328,-2.5109059729000003,262.1901415472093,1.9707,5.397228,10.55571463294158,2.0,1.0,-1
1245,KMg3AlSi3O11F,mp-1223599,9,-6.839986023749999,2.6469391896661842,-3.1372046598970003,524.763907692198,0.012799999999999924,5.4059755944999415,21.03317965688521,2.0,1.0,-1
1246,InSn3Se4,mp-1223673,6,-3.97177186,5.906032092551364,-0.3762662092968752,221.21319198041905,0.0,4.106148999999999,11.764004774603071,2.0,1.0,-1
1247,InI2Br,mp-1223696,1,-2.4639402725,4.387681839488553,-0.6047813974999998,339.49733626795415,1.785,7.239101,8.4134504707725,2.0,1.0,-1
1248,InGe2SbTe5,mp-1223718,156,-3.6601725144444437,6.03027848350903,-0.12203414444444388,280.8351315807033,0.0,4.264547217409136,17.830967,2.0,1.0,-1
1249,Ir(N2Cl3)2,mp-1223753,107,-4.9585318827272715,2.307371452871219,-0.5793114253709093,331.7389907714081,0.3092000000000001,7.7641472329671855,7.7641472329671855,0.0,1.0,-1
1250,InBiSe3,mp-1223842,160,-3.852916532,6.3461217374596774,-0.4270260374062495,146.7082456838383,1.0506000000000002,10.256907053880226,10.256907551873761,2.0,1.0,-1
1251,In3GaTe4,mp-1223857,121,-3.26388348625,5.894895268702066,-0.2818396846875002,260.44503907155394,0.047700000000000735,7.029962277862095,7.029962277862095,1.0,1.0,-1
1252,K(CrS2)2,mp-1223898,187,-6.002011065714287,2.8089151529334258,-1.1008034436428569,160.41356945968337,0.0,3.5483484248134367,14.711535000000001,2.0,1.0,-1
1253,Hg2I3Br,mp-1223967,8,-1.472700661666667,5.209795120586863,-0.3366464758333333,274.68417349941683,2.515,4.567266125551479,14.070707876230712,0.0,1.0,-1
1254,HgPb2,mp-1223969,12,-2.543324146666667,11.052462588233432,0.033000688333333215,92.39704838770771,0.0,3.5087683508972205,8.567379491787321,1.0,1.0,-1
1255,Hg2IBr3,mp-1223974,8,-1.599630983333333,5.0852793260855815,-0.4259388225,250.7150447159367,2.568,4.4368874579157405,13.469922521762328,0.0,1.0,-1
1256,In4Bi,mp-1223990,12,-2.910817292,7.685874047774098,0.06853655399999994,144.37645083067392,0.0,3.254868855321824,14.893697830670323,2.0,1.0,-1
1257,In(BiSe2)3,mp-1223998,160,-3.94106029,6.90767862614118,-0.4013347374062505,292.19904790647763,0.5418000000000003,19.67582764812952,19.675828540680467,2.0,1.0,-1
1258,HgO,mp-1224,62,-2.92037400375,9.849066490124043,-0.6457010868749999,146.06670001551564,1.2481999999999998,3.7388519999999996,6.7396910000000005,1.0,1.0,-1
1259,HgBrCl,mp-1224010,62,-1.7892637091666668,4.8299491634112455,-0.7244444152533335,434.4909801117089,2.4995000000000003,4.662116999999999,13.468005999999999,0.0,1.0,-1
1260,HgBrCl,mp-1224070,19,-1.7969751275,4.837992216190537,-0.7321558335866666,433.7686486715157,2.5964,4.291012,13.595347,0.0,1.0,-1
1261,HfZrS6,mp-1224121,6,-6.6089313675,4.444688862549949,-1.6910777823437506,172.64239827844708,1.0847000000000002,3.632725,9.234029470511881,2.0,1.0,-1
1262,Hg11I2BrClO4,mp-1224171,1,-1.8512643542105265,8.596614346839633,-0.4690565312242103,509.88070984833655,1.2719999999999998,6.662275,10.793961051515147,2.0,1.0,-1
1263,InGaS3,mp-1224212,1,-4.1824623304,3.8260153865157998,-0.9427125637749998,609.2148727942556,0.04220000000000024,6.756378999999999,15.581593596606028,2.0,1.0,-1
1264,HfZrNb2,mp-1224216,35,-9.591756605,9.211271820085342,0.08511828500000007,82.11895117592066,0.0,3.017306813947166,9.746122999999999,2.0,1.0,-1
1265,HfTiSe4,mp-1224218,10,-6.5152567616666675,5.896664476334782,-1.209202298784722,152.68620147995068,0.0,3.6826220000000003,6.574361543213911,2.0,1.0,-1
1266,Hg3(SCl)2,mp-1224250,26,-2.1512470485714283,5.9514647967250935,-0.6705723653957144,411.15765254245684,0.5972,4.690875,9.653824,2.0,1.0,-1
1267,HfTeSe,mp-1224271,156,-6.607491016666668,7.203839697604951,-1.075357264114583,88.75691220709801,0.0,3.9006916844734087,6.735786,2.0,1.0,-1
1268,GeAs3,mp-1224319,160,-4.586309555,5.4823345072975815,0.06378621250000016,90.08065603019823,0.0,7.634614235840933,7.634614715104097,2.0,1.0,-1
1269,Hf4AgPd,mp-1224331,123,-8.294947353333333,12.751248114018832,-0.32141515111111235,120.88168827226488,0.0,3.24401,11.486723,2.0,1.0,-1
1270,GeSbTe3,mp-1224339,160,-3.711550424,6.334706398086518,-0.07516404699999983,151.30348417268974,0.0,10.165887882295179,10.165888143268152,2.0,1.0,-1
1271,InBi3Te4,mp-1224344,6,-3.56375568875,7.46749262410452,-0.1893818912499997,835.3242676762367,0.0,4.467822,24.28373273781628,2.0,1.0,-1
1272,Ge(SbTe2)2,mp-1224348,160,-3.7447857142857135,5.8178176778927275,-0.10846656357142846,235.91924788300378,0.2354000000000003,15.062048919706012,15.062049671308115,2.0,1.0,-1
1273,Ge(SbTe2)2,mp-1224350,160,-3.748282818571429,6.140779417779187,-0.11196366785714268,223.51155733017242,0.36160000000000014,14.118050278990117,14.11805082885042,2.0,1.0,-1
1274,Ge2Sb2Te5,mp-1224375,164,-3.7926040666666654,6.243626979875428,-0.10143041777777816,273.08510247018296,0.2603999999999997,4.29406442480606,17.101346,2.0,1.0,-1
1275,Ge2SeS,mp-1224376,26,-4.44677166,4.593964678070553,-0.3930323963671869,185.2885232211516,1.1343000000000003,3.785688,10.915485,2.0,1.0,-1
1276,Hf3N2,mp-1224383,160,-10.684670296,13.345825383411414,-1.5293681109520008,70.11077787992289,0.0,8.175183025895139,8.1751837757585,2.0,1.0,-1
1277,Hf3N2,mp-1224388,166,-10.779062004000002,13.387488527463887,-1.6237598189520002,69.89258643703577,0.0,8.00631619630433,8.006316650998011,2.0,1.0,-1
1278,Hf4N3,mp-1224391,160,-10.775620068571428,13.430294825587225,-1.6775955024485705,93.47035980405492,0.0,10.725674825984845,10.725674951051984,2.0,1.0,-1
1279,H3Pd4,mp-1224413,166,-4.4824046371428565,10.29414211662757,-0.1340136051228567,69.15383846904484,0.0,9.599427917932664,9.599428033219533,2.0,1.0,-1
1280,Ge2Bi2Te5,mp-1224417,160,-3.789777233333333,6.463459254369242,-0.15170734666666558,308.6129575962643,0.07110000000000039,19.227544320257905,19.227544883843727,2.0,1.0,-1
1281,Hf2(SeS)3,mp-1224418,6,-6.42701045,6.066744385596019,-1.3243752333007819,188.87614390400745,0.6206,3.691763,9.563626351577314,2.0,1.0,-1
1282,In2(PSe3)3,mp-1224455,2,-4.0422243035714285,4.320180987930664,-0.24176513620057397,794.2558247912127,0.7763,6.506059,15.371785044528988,2.0,1.0,-1
1283,Hf3TiTe20,mp-1224556,38,-4.616235869166666,6.273096167042322,-0.42319098722222215,829.9489497402627,0.0,7.806580049410178,27.463540999999996,1.0,1.0,-1
1284,FePd2,mp-1224793,164,-6.322090606666666,10.754366405558695,-0.04550177333333375,41.486585288633044,0.0,2.7163615688278684,6.492349,2.0,1.0,-1
1285,Ga2Ni5Te4,mp-1224878,164,-4.56102758,7.80978342556393,-0.2401113868181813,200.5699778311763,0.0,3.86611405375708,15.4948,2.0,1.0,-1
1286,GaPH11C3Cl,mp-1224931,2,-4.675313420588235,1.2796828418156183,-0.3804500255383199,475.6267094959694,4.8622999999999985,6.662375,10.261474680195484,0.0,1.0,1
1287,FeMo2,mp-1224941,69,-9.990053956666666,9.42113499865022,0.06370902333333342,43.66321471164788,0.0,2.6637531005528645,6.78931941218389,1.0,1.0,-1
1288,Fe4Te3Se,mp-1224990,25,-5.95366058125,6.652989837366293,-0.1029323577929695,171.00608356568662,0.0,3.657304,7.288261,2.0,1.0,-1
1289,FeCo(BiO3)2,mp-1225028,99,-6.02442624,7.552293188653858,-1.6018880292500002,138.2414135510773,0.6764999999999999,3.762837,9.763541,2.0,1.0,-1
1290,FeCl4,mp-1225059,65,-3.6792374060000004,2.6129639936068965,-0.9821560486080004,125.61105743898528,0.28090000000000004,3.4345849999999998,6.149317655124023,1.0,1.0,-1
1291,Ga6AgSb7(TeCl3)8,mp-1225073,1,-3.3738990967391307,3.5802896029298137,-1.0881823884762318,1507.4426048877372,1.4202,11.976258999999999,12.697899610610369,1.0,1.0,-1
1292,Fe2TeSe,mp-1225136,99,-6.018240725,6.310824077785492,-0.12343618308593828,83.7397068008418,0.0,3.7553980000000013,5.937717,2.0,1.0,-1
1293,CuPd,mp-1225656,65,-4.67510623,10.108140591288002,-0.03556198999999971,27.921572760571642,0.0,2.6700109373987595,4.187999,2.0,1.0,-1
1294,Cu4Si(GeO4)3,mp-1225830,25,-6.0901008590000005,4.608162271150642,-1.7581403645000002,249.426058095832,0.0,2.944114,17.457743,2.0,1.0,-1
1295,Cu4Bi3Pb(SeO)4,mp-1225836,107,-4.77557064625,8.315546472020696,-0.853952867148438,293.1787698778162,0.0,10.110113950852485,10.110113950852485,2.0,1.0,-1
1296,Cu(Bi4Ir)3,mp-1225844,6,-4.81834523,11.553089457816595,0.012586623124999363,452.4602330961573,0.0,4.2424230000000005,11.68545460600609,1.0,1.0,-1
1297,CuBi3PbS6,mp-1225886,31,-4.358998945909091,6.81432166741584,-0.6935538667045452,531.2680746685044,0.6994999999999996,4.062911,11.66076,2.0,1.0,-1
1298,Fe2Te4BrClO10,mp-1225925,14,-5.355645750555556,4.792397235120295,-1.5003878792088885,1243.8333196151787,2.0494000000000003,6.68430905,14.492279174503105,2.0,1.0,-1
1299,CoTeSe,mp-1225994,156,-4.8187175233333335,7.103496525897405,-0.23620745578125005,62.062650499889756,0.0,3.634900224979497,5.423938,2.0,1.0,-1
1300,Cr5(Te3Se)2,mp-1226038,156,-5.91068232,6.10845967263662,-0.20938494420673007,321.72575754148585,0.0,3.850028819882392,25.062668,2.0,1.0,-1
1301,CoNiTe4,mp-1226048,10,-4.468280615,7.481794695298518,-0.2246709158333336,139.38670310167694,0.0,3.839234,6.66269658374633,2.0,1.0,-1
1302,CoNiTe4,mp-1226054,12,-4.464041671666666,7.581315757161633,-0.22043197250000013,137.5569530758752,0.0,6.578065567522493,6.69015269449674,2.0,1.0,-1
1303,CoNi(PS3)2,mp-1226098,5,-5.080846949,3.3034267003693816,-0.6255504090892856,186.97583055313012,0.0,5.797899742918724,6.706527289744892,2.0,1.0,-1
1304,CrRe5B2,mp-1226226,38,-10.86157678875,17.038555677266647,-0.20726842166666687,97.91121692061294,0.0,4.8876975536553,7.212172,2.0,1.0,-1
1305,CrAg(PSe3)2,mp-1226281,5,-4.66743641,4.641011583473891,-0.2386720037872017,248.87336879121943,0.7250999999999999,6.381072073174933,7.350600616702013,2.0,1.0,-1
1306,CrCu(PSe3)2,mp-1226296,5,-4.772583608,4.644036165367185,-0.2171541351205356,232.86326898685056,0.6841999999999997,6.253193301225383,7.163105123010621,2.0,1.0,-1
1307,Cr2Ir2C,mp-1226352,166,-9.41592096,14.395802056793256,-0.1739736640000004,57.72481585533179,0.0,8.957465489533801,8.95746584002557,2.0,1.0,-1
1308,Cr2Rh2C,mp-1226355,166,-8.764528087999999,9.244728402046805,-0.11222981199999964,57.80424582366225,0.0,8.901364344343232,8.901364577779354,2.0,1.0,-1