,pretty_formula,task_id,spacegroup.number,final_energy_per_atom,density,formation_energy_per_atom,volume,band_gap,min_abc,max_abc,Dimension,Dim,is_uv
2904,CrAg(PS3)2,mp-557592,13,-5.073913231000001,3.025844644643172,-0.6589017912559527,454.6157460044266,0.0,5.969653,10.679795,2.0,1.0,-1
2905,SbC2N(OF3)2,mp-557600,14,-5.917674739583332,2.6290133887857565,-1.9552025255849999,772.5410397340448,4.6214,5.5967980000000015,15.591409024457828,0.0,1.0,1
2906,SbAs3(Se2F3)2,mp-557606,11,-4.368056600357144,3.7196882469148997,-1.467106374036786,693.1592571552948,2.0726,6.452697,10.77324509955682,0.0,1.0,-1
2907,Bi14Te13S8,mp-557619,148,-3.942632166,6.884499179313656,-0.42528041271428624,1167.658697112874,0.5462999999999996,12.391698036434276,12.391698348841212,2.0,1.0,-1
2908,AsS(IF3)2,mp-557628,15,-3.7972179102499997,3.4870448481972525,-1.8268744797765,904.3768208858504,1.197,8.216467719294041,14.17221847591523,0.0,1.0,-1
2909,Sn2WO5,mp-557633,14,-6.66143457234375,5.760209842549955,-1.9296098818750007,1156.0090394738047,2.4546,8.217191999999999,14.106635,2.0,1.0,-1
2910,Sb2TeSeF10,mp-557635,57,-4.428032633482141,3.734786587094949,-2.349267188785267,2276.652345135975,1.5148,8.661482000000001,16.421737,1.0,1.0,-1
2911,K3Sn5Cl3F10,mp-557665,63,-4.480016675,3.6990502130668013,-2.511154275746667,904.2726171091645,3.2166,10.11677672234482,20.909416,2.0,1.0,1
2912,NbIO2,mp-557685,62,-7.298163205625,5.0595826948252585,-2.2690010575,330.5725285206066,1.0433,3.811867,21.660413000000002,2.0,1.0,-1
2913,TlNO3,mp-557704,144,-5.681663021111111,5.398669166342895,-1.0714387063371116,737.4284280375972,2.8696,7.599719,10.585121520085492,0.0,1.0,-1
2914,OsO2F3,mp-557705,7,-5.8487167425,5.00609048871367,-1.851997444345001,370.47862184579316,0.586,5.237814,12.654615682921236,1.0,1.0,-1
2915,Zn2SeCl2O3,mp-557746,56,-4.18184181796875,3.3975157805685954,-1.524329685795469,1285.149900918943,4.0927,7.831078999999999,15.738087,2.0,1.0,1
2916,SbIrC2(OF3)2,mp-557748,118,-5.9855350509375,3.769950837894706,-1.9492329842408327,1705.4447317538645,2.4943,9.738983000000001,13.233113000000001,1.0,1.0,-1
2917,TlSbO3,mp-557787,163,-5.5693363960000015,6.5082644718019225,-1.72380627075,381.8385561177497,2.4363,5.413725787712656,15.043768,2.0,1.0,-1
2918,HfSCl6O,mp-557792,14,-4.640471630277777,2.7096820521940166,-1.8405882918261112,1076.7742739241698,3.2535,7.016284,22.253446,0.0,1.0,1
2919,SbSCl9,mp-557809,12,-2.73041101,2.175444734690596,-1.013442837496818,721.9418017391823,1.7743,7.747866899542996,14.251038243202634,0.0,1.0,-1
2920,Ti3O,mp-557812,149,-8.551409775833333,4.834658283147383,-1.5683743961458336,328.90353409522345,0.0,5.156308244446991,14.28434,2.0,1.0,-1
2921,TlF,mp-557835,129,-3.86729668,7.953395290873437,-1.9761951230950001,93.27690410481544,3.007000000000001,3.842626,6.3171019999999976,0.0,1.0,1
2922,BCl(OF2)2,mp-557856,9,-4.8049699975,2.196156888650325,-2.041623219960833,233.27003735638905,1.9708,5.213602823670404,9.765616938147073,0.0,1.0,-1
2923,NO2,mp-557865,204,-6.2861940405555545,1.4132112244105155,-0.8049263321822219,324.34187632637315,2.8748,7.4967835488761425,7.4967835488761425,0.0,1.0,-1
2924,S,mp-557869,4,-4.135588018125,1.5833551030390092,0.0008618487499999125,1614.1476307367702,2.7065,11.599142,11.861385954283126,0.0,1.0,-1
2925,SbCSCl2F9,mp-557900,14,-4.35091118625,2.742710201377568,-2.056523688775357,987.4133368560867,3.8004,8.027716,12.749867329299548,0.0,1.0,1
2926,SbSe2S(NF3)2,mp-557904,14,-4.811173515208334,3.2529102642219283,-1.559335245184375,1853.0302516917263,1.555,10.183657,16.975796,0.0,1.0,-1
2927,SbI(OF4)2,mp-557917,14,-4.103644516458333,3.7558143899308662,-1.9779156945433327,765.1422307276222,2.2627,5.903375,12.955984070836534,0.0,1.0,-1
2928,Tl(Cu3S2)2,mp-557929,139,-4.1292412,6.379934701979897,-0.4157091575000006,185.8155206011481,0.0,12.372068819356125,12.372068819356125,2.0,1.0,-1
2929,TiZn(BiO3)2,mp-557950,107,-6.448102966,7.497487962031001,-2.2071732600833336,138.9192270455325,1.8587,6.201072716774172,6.201072716774172,2.0,1.0,-1
2930,GaN5O14,mp-557954,82,-6.1010781845,2.130951289389539,-0.9895895343450009,283.4499002671048,1.1667999999999998,7.420060479046246,7.420060479046246,0.0,1.0,-1
2931,SbCNCl4O,mp-557961,176,-4.875117423125,2.295167732558608,-1.0539519852087498,1326.5491672359672,2.1439,10.536339,12.05733935735177,0.0,1.0,-1
2932,InTeClO3,mp-557992,14,-4.994852073333333,5.074404488011393,-1.6805467328349994,426.5474212630197,3.1451,7.031733,8.643285252831241,2.0,1.0,1
2933,S,mp-558014,58,-4.1223466874999986,1.4910137907510814,0.014103179375000016,857.0574276506027,2.4783,5.663469,15.710459,0.0,1.0,-1
2934,SbSe(IF2)3,mp-558026,14,-3.6202159822727267,3.817957506721424,-1.7365567672257958,1209.8389614847265,1.4032,8.851510000000003,13.092972349954346,0.0,1.0,-1
2935,Sb2SeI2F11,mp-558073,2,-4.09018559796875,3.695145088873707,-2.1884361817458595,1411.5535547750433,1.4004,8.23794,18.27272883236888,0.0,1.0,-1
2936,Nb2Tl5S4Br9,mp-558099,71,-4.0192837464999975,5.419226385659488,-0.9875250811249998,629.723790468884,1.7504000000000004,10.34579595677945,10.34579595677945,1.0,1.0,-1
2937,TiS2,mp-558110,166,-6.6527548833333325,2.1452723183333924,-1.7055976331944451,86.69080948496072,0.01930000000000009,8.832788585725911,8.832788725733792,2.0,1.0,-1
2938,TlF,mp-558134,39,-3.8668043125,7.921891020860188,-1.975702755595,93.64785351136244,3.0179000000000005,3.8506582835907417,6.31616,2.0,1.0,1
2939,Ti4S8Cl6O,mp-558135,15,-5.545721604210527,2.1284887918021043,-1.8017922183759647,1055.8625045216163,1.6005,9.826627702463648,13.38672078676675,0.0,1.0,-1
2940,Te4W(OF4)5,mp-558136,2,-4.632552298166667,3.4970666144956284,-2.271896957835,1096.1201549293216,3.0555000000000003,9.981444,10.889885365440811,0.0,1.0,1
2941,BF3,mp-558149,14,-5.86927842125,1.8148886085858384,-3.1340178781841663,496.3163445567137,8.1577,4.845534,14.271714999999999,0.0,1.0,1
2942,SbC(Cl2O)2,mp-558165,2,-4.6938571665625,2.37340184979758,-1.3360425685050004,860.791605023799,2.1067,7.124696000000001,16.682770445426268,0.0,1.0,-1
2943,MoS2N2Cl5,mp-558183,2,-4.8266745985,2.208546591148091,-0.8300923962310002,549.3887188537228,0.5425,7.347696000000001,10.20051715184132,0.0,1.0,-1
2944,CuAs4S3Cl,mp-558199,57,-4.328998370833333,3.47281167947748,-0.5058316077927785,946.5163254902184,1.6216999999999997,7.514071,11.254812,1.0,1.0,-1
2945,As(IF3)2,mp-558244,12,-3.738234368333333,3.8068023306432974,-1.9348516530155555,386.2325303504757,0.5446,6.033233272003495,8.162586763735256,0.0,1.0,-1
2946,TaBi4ClO8,mp-558314,123,-6.538310703571428,8.967763902642666,-2.064232875232857,218.55655879400499,1.0814000000000004,3.907064,14.317355,2.0,1.0,-1
2947,IClOF,mp-558330,14,-3.2119196359375,3.4165324710853526,-1.1008998373625,767.3654945103058,2.0482,7.276021000000001,13.08189147489399,1.0,1.0,-1
2948,Zn2TeBr2O3,mp-558350,56,-4.09092003578125,4.463005492114408,-1.3817153312499997,1387.7347886077584,3.2936,7.8306809999999984,16.485903,2.0,1.0,1
2949,AlAs3S5Cl4,mp-558360,11,-4.147079898461539,2.3499643865811235,-1.0622118764357695,782.773498471812,2.3221000000000003,6.627910000000001,11.95371567841531,0.0,1.0,-1
2950,PtCI2O,mp-558381,15,-5.062403492,4.679781716375745,-0.5441276702500005,676.8829632623135,1.6101,7.365216933291577,13.73510324233644,0.0,1.0,-1
2951,TeOF2,mp-558387,4,-4.693758215625,4.668174326629967,-2.136241549032501,258.38589047830106,4.2002,5.4557709999999995,8.365482,2.0,1.0,1
2952,Nb4Te9I4O,mp-558408,15,-5.001004288333333,5.282800006903393,-0.6100795961805561,1284.7538059897124,0.25929999999999964,11.981974110295225,20.89001205382163,0.0,1.0,-1
2953,Hg3Se4O5,mp-558456,2,-3.84093451,6.318512056124972,-0.8306833142187499,524.3530064986746,1.8769,7.9084179999999975,9.504796875659997,2.0,1.0,-1
2954,AsS(BrF2)3,mp-558466,14,-3.6402549052272732,3.1310442450960214,-1.679692296615,977.2996534729924,2.4875000000000003,8.273506,12.392089366565427,0.0,1.0,-1
2955,PAuClF3,mp-558523,62,-4.417093693333333,4.052757935273145,-2.0499822300669046,525.0919957758629,3.5947,4.941139,18.78554,0.0,1.0,1
2956,C2S(NCl)3,mp-558545,14,-5.779529369444441,1.6786640079214663,-0.2744715072272217,809.0313461651018,3.1612,7.7659210000000005,12.57591833134857,0.0,1.0,1
2957,ReSb(OF4)2,mp-558576,14,-5.5677251652083335,4.2763959803893465,-2.5319534624599997,764.1081150455052,3.7844,5.762133,12.92396684237951,1.0,1.0,1
2958,Sb8Br2O11,mp-558592,2,-5.595489651547619,5.289826945296089,-1.6427190250595236,1644.7488810550894,2.6389,10.795889,14.274978773393713,2.0,1.0,-1
2959,PBr3O,mp-558645,62,-3.852034908,2.6459033059171,-0.9380887179642862,719.6814944082696,3.3311,6.502524,10.625222,0.0,1.0,1
2960,CSCl(OF)3,mp-558648,14,-5.2480967925,1.9723719309698555,-1.8089558645783328,621.3963336855655,4.6289,5.2821370000000005,23.679844,0.0,1.0,1
2961,PClOF2,mp-558681,62,-5.18088917775,1.930026423463741,-2.430108662842286,828.8675890157582,5.7341,5.849181,13.764070000000002,0.0,1.0,1
2962,Sb2ClO2F11,mp-558692,14,-4.32476742890625,3.1393663336409388,-2.222940187271876,1100.100120386238,1.8625,7.776267999999999,15.076222142832234,0.0,1.0,-1
2963,WSNCl5,mp-558716,14,-4.9222788446875,2.8574894955632293,-1.0906734186631248,946.4711151646744,1.0159,6.2881290000000005,16.785035206786812,0.0,1.0,-1
2964,TiTlPS5,mp-558747,2,-5.260178123125,3.4671219589401225,-1.1307555990662204,424.86566906342,1.1771999999999998,6.746944,9.40704604455942,1.0,1.0,-1
2965,Sb4OsC6(O3F11)2,mp-558754,14,-5.73108839,3.2701068116243155,-2.1457007139405126,1282.9865212971656,4.434,9.979864,12.779461999999999,0.0,1.0,1
2966,Tl2MoO4,mp-558755,164,-5.854438173571429,6.332291013115869,-1.7086366214285715,298.2666271917973,3.3154000000000003,6.409211644721682,8.384261,2.0,1.0,1
2967,Cd4Te6Cl6O13,mp-558759,2,-4.440368514310345,4.995751845380892,-1.5000884600279314,1087.550360524855,3.3117,8.015409,14.350409043718926,2.0,1.0,1
2968,Hg2MoO4,mp-558802,15,-4.960776388571428,7.599536429849525,-1.4029670121428577,245.21435073251732,1.9134,5.057434809290673,7.497971511684277,1.0,1.0,-1
2969,ZnTeMoO6,mp-558830,18,-5.944334912222222,5.0860037855715925,-1.8119259808333328,251.3631142081916,3.1571,5.101379,9.205844,2.0,1.0,1
2970,MoF6,mp-558836,229,-4.920038247142856,2.471964422006442,-2.657474842448572,141.02050144652372,4.249700000000002,5.679385937764312,5.679385937764312,0.0,1.0,1
2971,AlSBr3N,mp-558847,14,-4.137931925416667,2.684645042052132,-0.7909623413341667,773.821327191582,1.8892,7.552753,10.842196000000001,0.0,1.0,-1
2972,AsC3N3F8,mp-558853,15,-6.034253522333334,2.3538356180866664,-1.5301683131106665,860.5523561765688,4.015,8.407768429402001,13.887804347166258,0.0,1.0,1
2973,OsOF4,mp-558879,19,-5.484006546041668,5.013798721663771,-1.95813980371,747.7641034499898,0.5956999999999999,5.786123,13.156516,1.0,1.0,-1
2974,SbCSF11,mp-558893,15,-4.587515486428573,2.837365649593662,-2.269313823658215,877.4338357960941,4.4408,9.366709588659882,13.62933753242897,0.0,1.0,1
2975,Hg3ClO,mp-558934,15,-1.8813959233333333,8.72046839214266,-0.5992844152353333,1492.6280547346093,1.1793,10.937787280762091,17.412772463752006,1.0,1.0,-1
2976,BaSbSe2F,mp-558946,2,-4.7003360645,5.008399556805891,-1.8082670326755,578.2318259959421,1.45,6.3148,14.273956367551715,2.0,1.0,-1
2977,S,mp-558964,60,-4.122331677125,1.5879841171581561,0.014118189750000454,2682.40391551604,2.5396,9.558458,19.746201,0.0,1.0,-1
2978,SbSe6IF6,mp-559000,13,-3.901969476785714,3.861806389205437,-1.3911277965144642,719.300482429558,1.5426,7.258564999999999,12.019051245729544,1.0,1.0,-1
2979,Sb2OsC4(OF3)4,mp-559010,33,-6.000299653804348,3.2721972570190694,-2.0689203837730425,1570.660041620069,3.6739,9.002715,16.341688,0.0,1.0,1
2980,TlMo2Cl7O2,mp-559041,2,-4.318687416666667,3.4148883214510115,-1.4637518487766676,657.8508476751999,2.5434,7.267019,10.281454244847904,0.0,1.0,-1
2981,SnP2(Cl5O)2,mp-559064,58,-3.9164521735,2.016784082624844,-1.525386554649524,1867.9938168045176,2.8617,8.291071,15.065079999999998,0.0,1.0,-1
2982,Ag2Bi2S3Cl2,mp-559071,2,-3.730197536388889,5.894385992000152,-0.799991738525371,902.3886100216057,1.8583,7.317419,11.420754444770491,2.0,1.0,-1
2983,NiAs2S6(OF)12,mp-559097,14,-5.1538880256060615,2.4423703927082654,-2.070042573425151,1116.2409434000017,3.0298,8.092838,15.431773769409725,0.0,1.0,1
2984,P2RhClF6,mp-559115,14,-5.1961086913750005,2.7595932093919884,-2.3993055541292856,1512.9810311194865,1.4220999999999997,10.176072999999999,15.109445026731887,0.0,1.0,-1
2985,IN2O4F5,mp-559119,2,-4.8207511570833335,2.808366778323176,-1.361220362559166,371.21621564860186,1.4869999999999999,4.994167,9.957869733839114,0.0,1.0,-1
2986,Cr2HgO7,mp-559125,145,-5.927432447999999,4.2726329941197925,-1.3970890893749992,485.70334328137255,2.0146,7.617793025897527,9.66456,1.0,1.0,-1
2987,Pb3SO6,mp-559143,2,-5.842592886,7.032375402070633,-1.8341004970625001,354.03173757064064,2.9556,5.891761,8.325269277737027,2.0,1.0,-1
2988,SiB11H10C4F11,mp-559162,14,-5.748355855202703,1.5745118302351333,-1.3205406015573875,1746.9483676371815,3.4374,7.86211,18.491249306662358,0.0,1.0,1
2989,P2IrClF6,mp-559182,14,-5.311571181000001,3.6354058944423824,-2.3673557887542858,1474.8433087997144,0.8571,10.453574,15.4546668656577,0.0,1.0,-1
2990,H3CS,mp-559204,14,-4.8402156724999985,1.1387407724565155,-0.3564195622969997,549.4531845690603,3.6318,5.3685410000000005,15.292967,0.0,1.0,1
2991,VPO5,mp-559299,85,-7.355312544285715,3.0195277149566717,-2.4919526478316336,178.08191332758315,1.8871,4.5640540000000005,6.246468,2.0,1.0,-1
2992,SbP(Cl2F3)2,mp-559301,85,-4.03250228625,2.572125614009331,-2.1090863019792856,527.4939025584582,4.5069,6.9434119999999995,8.716101,0.0,1.0,1
2993,MoS3(NCl4)2,mp-559303,14,-4.207027511607143,2.1899167890445965,-0.8355728816225003,1527.97358339775,0.4986999999999999,7.676201,16.692566,0.0,1.0,-1
2994,BiTeIO3,mp-559332,14,-4.90124922,6.3110335723692526,-1.3521918431249995,538.319189654159,2.4117,7.174108,9.588579942303973,2.0,1.0,-1
2995,Sb2ClF17,mp-559349,14,-3.63638587475,3.1830261879951363,-1.9533255881745,1256.1060427073594,0.3186,8.579119,15.986625045310344,0.0,1.0,-1
2996,Hg3AsS4Cl,mp-559355,186,-2.8871357394444437,5.782909368164028,-0.5853613011955553,482.6375726145612,1.537,7.589651620781878,9.674907000000001,2.0,1.0,-1
2997,Tl3AsS3,mp-559356,61,-3.7694596791071433,6.299838303186612,-0.6033101154464282,1653.7632862315345,1.5714000000000006,5.818466,22.371387,2.0,1.0,-1
2998,PBrNF,mp-559366,36,-5.3413599862500005,2.529185978005488,-1.2355513055353573,566.7984578991443,4.2508,8.289664,8.352425119620827,0.0,1.0,1
2999,IOF3,mp-559377,19,-3.675113606,3.727044399719165,-1.6688479089640005,356.2503640452418,3.6374,5.776728,10.625604,1.0,1.0,1
3000,SbTeClO3,mp-559379,62,-5.1030347704166665,4.720875309350301,-1.5591765115849998,468.2572304398208,3.1656000000000004,5.511814,11.674373,2.0,1.0,1
3001,C2SNCl2F5,mp-559455,14,-4.9685295747727265,1.8805770661692325,-1.3785772041340905,1667.0307196153708,3.4119,5.446880999999999,19.45595963947552,0.0,1.0,1
3002,AgPbBrO,mp-559470,129,-3.98714014375,5.909104663224649,-0.8801913732291666,230.97725830115803,0.1882999999999999,4.02718,14.241874,2.0,1.0,-1
3003,Tl(NiS)2,mp-559492,139,-4.765949502,7.003885805169166,-0.5923682872500002,91.49238146942758,0.0,6.8922328731038975,6.8922328731038975,2.0,1.0,-1
3004,TiPCl7O,mp-559493,61,-4.459364205875,1.8848254605377768,-1.8262241874724758,2417.554077896839,2.6595,13.034221,14.091866,0.0,1.0,-1
3005,VTeO4,mp-559505,14,-6.576361579166666,4.665682298751311,-1.9883834333333328,345.28339045784736,2.3675999999999995,4.599645286089787,13.68443000046056,2.0,1.0,-1
3006,SeO2,mp-559545,26,-5.14720492,3.7572711364770197,-1.15145744828125,392.3090253333554,3.4687,4.6848529999999995,16.046872,1.0,1.0,1
3007,Li2TeO3,mp-559554,12,-5.30930448,1.844578711680936,-2.026280635069444,341.15028266856183,4.0144,5.476410425891213,13.681868013460331,2.0,1.0,1
3008,AsSe(IF2)3,mp-559575,14,-3.550283254772728,3.7411573923246846,-1.6184315701803411,1151.5168492228552,1.3837,8.696952,12.798858887184007,0.0,1.0,-1
3009,CuSb2BrO3,mp-559587,36,-5.1393392253571415,5.337650680290928,-1.3206060687499996,1082.5462093211604,0.7827999999999999,8.045086169696381,19.346854999999998,2.0,1.0,-1
3010,AgSb(S8F3)2,mp-559602,15,-4.216658084583334,2.326262989380092,-1.2561290880752776,1223.0045445552037,2.7457000000000003,10.112073141802773,16.37794266934724,0.0,1.0,-1
3011,KLiO,mp-559612,64,-4.0691901725,2.2256658373704385,-1.6475277450277777,185.1449274394037,2.3844,5.464324723070271,6.499871,2.0,1.0,-1
3012,PH3CS3,mp-559616,14,-4.8212660359375,1.5607535660327705,-0.4739852676633038,605.1797293276948,2.1833,8.440061,8.906537661527345,0.0,1.0,-1
3013,NaB(CO2)4,mp-559618,63,-7.4780989914285705,1.9839230066233544,-1.8447782387499991,351.26914997549187,3.5546,6.69107356846605,8.039528,2.0,1.0,1
3014,PNF2,mp-559655,62,-6.120779017083334,2.014605533447233,-2.069064437916191,820.7283869543442,5.7734000000000005,7.224634,12.330179,0.0,1.0,1
3015,SnS,mp-559676,63,-4.496017655,5.060457430015728,-0.7547367940625005,98.95065069872021,0.7974999999999994,4.107896,6.208425020222843,2.0,1.0,-1
3016,Hg3(NO4)2,mp-559722,61,-4.7353563100961535,6.316671199902746,-0.8291017546930769,1593.6507433254758,0.8528,7.1480440000000005,16.025796,2.0,1.0,-1
3017,Ta4S9Br8,mp-559724,107,-5.480139585714285,4.006163098043026,-1.1094999837202388,684.5853259267259,1.3014,10.229345291848253,10.229345291848253,0.0,1.0,-1
3018,SbSNCl5,mp-559738,122,-3.5966448103125,2.3045943450096016,-0.868680038038125,1989.2318258807595,1.7869,13.737695780903433,13.737695780903433,0.0,1.0,-1
3019,ScIO,mp-559760,12,-6.804573088333334,4.391847539419622,-2.7705240254166674,284.11597101586375,2.0147000000000004,7.263099555017128,10.255307639694973,2.0,1.0,-1
3020,KHg2S(ClO)3,mp-559765,36,-3.709081515,4.270651906201277,-1.5401516269654998,487.3544770982825,2.724,7.034738000000001,11.614185576211964,2.0,1.0,-1
3021,CrHg3O5,mp-559772,29,-4.370977874027777,8.011323255773423,-1.0621538841666671,1216.7201390121836,1.6543,9.638268,11.819865,2.0,1.0,-1
3022,NaAs4BrO6,mp-559786,62,-5.557705005833332,3.8644921200179283,-1.6358679067361106,856.9362754731147,3.0497,5.326986,19.585518,2.0,1.0,1
3023,Sb2BrF17,mp-559807,14,-3.72270923675,3.3400416286997587,-2.0204951720115,1285.4537141519422,0.14449999999999985,8.657762,16.134298051378657,0.0,1.0,-1
3024,Au2Se3O10,mp-559824,36,-4.882395434,5.301026280818232,-0.91625195396875,495.43845935902283,0.9805,8.861956,9.293098753320393,2.0,1.0,-1
3025,AgBTe4C(OF4)5,mp-559834,14,-4.712991119609375,3.4582517511996844,-2.1832641754182287,2114.761924503148,2.5124,10.240014,16.629416,0.0,1.0,-1
3026,InSb2S4Br,mp-559864,12,-4.066893678125,4.443736604734177,-0.7495721509375,423.3818454968058,1.5361000000000002,10.513302111653076,12.138976416051724,2.0,1.0,-1
3027,OsO2F3,mp-559897,14,-5.850769275833334,4.925037105653293,-1.8540499776783343,753.1514850781857,0.5688,5.763579,12.909780069099279,0.0,1.0,-1
3028,V4S9Br4,mp-559911,129,-5.454973719117646,3.037171367436284,-1.0937831754779417,887.8675327616579,0.6585000000000001,7.33443,11.002488,2.0,1.0,-1
3029,P2NCl5O,mp-559917,14,-4.542954730277779,1.7831573623001136,-1.2880698121747618,4011.294142041568,3.7195,13.245559,20.565979000000002,0.0,1.0,1
3030,Nb(PS4)2,mp-559923,64,-5.349107681136363,2.078960022907812,-0.9207626176948054,1314.3156790794128,1.2763000000000002,10.821982,11.781805904020699,2.0,1.0,-1
3031,AlS2NCl6,mp-559940,11,-3.796276948,1.7907785709468995,-1.1795635868189998,1178.8827486302291,1.6836,6.4115,13.796914000000001,0.0,1.0,-1
3032,AlS2NCl4,mp-559963,62,-4.1778284778125,1.7219487414084091,-1.2203995205212497,952.4959670629527,2.1062000000000003,7.5880300000000025,11.478057000000002,0.0,1.0,-1
3033,Ta2CS2,mp-559976,164,-9.17074277,8.6839387095421,-1.1930796312499994,83.76114557624767,0.0,3.2898861285573395,8.936146,2.0,1.0,-1
3034,TlRe3(S2Cl)2,mp-560005,2,-6.7021871487499975,6.360010470049295,-1.0926975531519991,1004.8545544987812,1.8316000000000003,6.436357,17.18914167403483,1.0,1.0,-1
3035,PNF2,mp-560008,36,-6.13043704,2.1955089938164303,-2.0787224608328567,125.5171317503373,5.6193,4.989135,5.299101973095536,1.0,1.0,1