,pretty_formula,task_id,spacegroup.number,final_energy_per_atom,density,formation_energy_per_atom,volume,band_gap,min_abc,max_abc,Dimension,Dim,is_uv
3565,OsC4(ClO2)2,mp-638236,15,-7.239629162272728,3.041452060366016,-1.0919181551381818,407.48562110071526,2.8624,6.169427703458401,11.816611095426852,0.0,1.0,-1
3566,MnTl2GeTe4,mp-638590,121,-4.07997467375,6.704631518117452,-0.19481917308189625,259.2477112396021,0.2055999999999996,7.0226496344826295,7.0226496344826295,1.0,1.0,-1
3567,Te3(PdBr)4,mp-638749,2,-3.724244267272728,5.84838906574981,-0.38814097727272734,640.6028934858588,0.8159000000000001,8.627044999999999,9.006812333094434,2.0,1.0,-1
3568,CrF5,mp-639662,57,-4.79534155125,2.8421885715108077,-2.3382085280750005,343.5092398731142,1.4569,5.612793,7.98263,1.0,1.0,-1
3569,I,mp-639751,71,-1.47330369,4.530400992465512,0.05070892499999991,46.514608863902204,0.0,4.792109299188719,4.792109299188719,1.0,1.0,-1
3570,PbI2,mp-640058,166,-2.917679138888889,5.429193934752027,-0.6641217055555555,423.00387357049897,2.4379,22.682505291768194,22.682505351218534,2.0,1.0,-1
3571,Mo3S7Cl4,mp-640341,14,-5.631727321607142,3.0270680222651745,-1.2129228883867864,1435.2330485688008,1.6899000000000002,9.586971,14.360600861056097,1.0,1.0,-1
3572,Sb2Te(SeF5)2,mp-6407,61,-4.371401281125,3.9318767081146335,-2.198159434230833,4858.616212440762,1.7292,15.60949402,17.69492763,0.0,1.0,-1
3573,Mo9O26,mp-640818,2,-7.030286850571429,4.382416019391402,-1.995455723214286,1939.174556082096,1.1725,8.520379622736067,20.14396692437798,2.0,1.0,-1
3574,VBi(PbO3)2,mp-640883,14,-6.342762506625,7.4371642387048125,-1.9236397733750004,1375.9477024427392,2.678,5.824733,30.358000027777273,2.0,1.0,-1
3575,NaB9Se8,mp-640950,147,-5.276867731851851,3.2219826756143437,-0.3103971776620361,2325.28907315954,1.9459,9.038497,17.235546273581527,2.0,1.0,-1
3576,As2S3,mp-641,14,-4.4731227035000005,2.8338092703075497,-0.5256814213750005,576.6881310704499,2.1971,4.600644,12.25978561965665,2.0,1.0,-1
3577,ReO2F3,mp-641112,14,-6.614772622395833,4.829929881063586,-2.4151878684075,1513.834076640237,3.2953,9.447109,15.780434367179284,1.0,1.0,1
3578,Hg12SbBr(ClO3)2,mp-642625,143,-2.3810915089393943,7.78333876648646,-0.6814648304857573,1776.5136866893436,0.0,9.941163000000001,14.364825794801169,2.0,1.0,-1
3579,V2H,mp-642644,12,-7.3253964200000015,5.912611102137317,-0.18954681954000088,28.896611415459965,0.0,2.6669689151268714,4.443598879073695,2.0,1.0,-1
3580,PHSF2,mp-642795,14,-4.6621017955,1.8635259084834284,-1.6686792640392858,363.7131770902495,4.5691,4.5040809999999984,9.403315449092464,0.0,1.0,1
3581,Zr2HBr2,mp-642803,12,-5.675542856,5.3620461809338185,-0.9537446557240002,212.6065920699588,0.0,5.976166900795526,10.375593524348282,2.0,1.0,-1
3582,SF6,mp-642824,2,-3.931866795714286,2.551755565795621,-2.218110985752143,285.1339674393383,6.0003,4.866649,8.214073422002569,0.0,1.0,1
3583,NbSe2,mp-643063,187,-6.521222599166666,6.011601166329192,-0.8235132673958331,277.1354861375041,0.0,3.4703009017462736,26.572188,2.0,1.0,-1
3584,ReF7,mp-643265,2,-5.22060896,4.657090566036871,-2.4220616947912497,227.625864464032,1.9957,5.169722,9.296884867762856,0.0,1.0,-1
3585,YCBr,mp-643367,12,-6.857275606666668,4.453038714645778,-1.080549488888888,134.8560417099284,0.0,4.02928774028289,10.044201368566492,2.0,1.0,-1
3586,LiBH4,mp-644223,186,-3.9769783975,0.7125420792906043,-0.3857681836633334,101.53164437236177,6.7570999999999986,4.180003435420239,6.709922,2.0,1.0,1
3587,Sr(AlH)2,mp-644229,164,-3.487980546,2.8375241699520917,-0.3559592987813332,84.03511796611319,0.0,4.539483598101,4.708876,2.0,1.0,-1
3588,CO2,mp-644607,136,-7.67537524,1.559096385397173,-1.7693380274999992,93.74596046275356,6.3188,4.2328769999999984,5.232163,0.0,1.0,1
3589,TePCl9,mp-644827,46,-2.910070289772728,2.301297829758942,-1.1063206914010388,1378.6268604361233,1.7979,12.477690127503008,12.477690127503008,1.0,1.0,-1
3590,TlV3(SeO6)2,mp-645272,173,-6.455713748055558,4.473199897660691,-1.8719815385937508,524.9939229014531,2.3173,7.161429733763014,11.820182,2.0,1.0,-1
3591,Al3Bi5Br12,mp-645282,167,-3.3233935205000003,4.751916549572215,-0.8068926445000002,1456.9771229581934,1.5953,12.870096791476668,12.870096852767658,0.0,1.0,-1
3592,Al3Bi5I12,mp-645326,62,-2.9248043955000003,4.89982527015664,-0.4760518744999999,3590.552730325184,1.2291,8.358588000000001,22.479944,1.0,1.0,-1
3593,HfTl8(MoO4)6,mp-645513,12,-6.447170075128205,6.195039822534821,-1.9693689951282047,743.332921451295,3.4478,8.005244553718331,10.884460556284681,1.0,1.0,1
3594,Nb3(BiO3)5,mp-645592,30,-7.252520392608696,7.588278025304862,-2.3203869708152167,684.3289175282201,1.3407999999999998,5.525658999999999,22.1221,2.0,1.0,-1
3595,TeMo3Se7I6,mp-645655,14,-4.465424061911765,4.507447403489667,-0.3892072352297793,2548.68267186578,1.0595,11.227007,18.554801480634197,1.0,1.0,-1
3596,Te2Mo3Se7Br10,mp-645663,2,-4.111771791590908,4.126549245244623,-0.4906728509730117,1524.9333162511825,1.474,10.652647,12.862052360422465,2.0,1.0,-1
3597,SnSO4,mp-645709,14,-6.028731942916667,3.929330809901603,-1.9511946767708328,363.05244835741996,4.1859,5.419079,9.137535968033232,2.0,1.0,1
3598,SnSO4,mp-645740,2,-6.00888623625,3.5647251810365623,-1.9313489701041664,400.18601673136635,3.826,5.159426,10.66457794584877,1.0,1.0,1
3599,SnSO4,mp-645774,2,-6.03073639,3.9423466109960894,-1.9531991238541668,361.85381746040383,4.1524,5.458292,9.143950108271481,2.0,1.0,1
3600,Al3Bi5Cl12,mp-646102,167,-3.7475307932499997,3.9962327059211855,-1.4608752552060005,1289.1968893886242,1.8969000000000005,12.398685787044892,12.398685905294359,0.0,1.0,-1
3601,VAg(PS3)2,mp-6462,13,-5.111443426,2.9716169120702234,-0.7533461262559527,461.7332085591044,0.028599999999999962,5.893056,10.820419000000001,2.0,1.0,-1
3602,SrNi2Te3(ClO4)2,mp-646605,14,-5.1095155984375,4.65982088314783,-1.682972904261666,1121.381615959687,3.1812000000000005,6.736471000000001,19.443120460346123,2.0,1.0,1
3603,ReNCl4O3,mp-647116,14,-5.4082227443055535,3.0189843898200865,-1.16940055699111,1716.2060858387883,1.4522,10.038352,15.759662898629939,0.0,1.0,-1
3604,SbP3C(NCl5)3,mp-647342,2,-4.131828958478261,2.014763530421817,-0.9900541437719252,1319.5328080162594,2.0998,9.384769,13.401018473993386,0.0,1.0,-1
3605,PBr7,mp-647343,62,-2.362579503125,3.3050564595765097,-0.25360804794642844,1186.326646909281,1.2392,8.342618,15.131229000000001,1.0,1.0,-1
3606,Tl8(CdN14)3,mp-647556,2,-6.640661796981133,4.68431203263961,0.07001225962339701,907.6988086956944,2.6689,8.710374,11.85925809087141,1.0,1.0,-1
3607,Re2N2ClF9,mp-647727,62,-5.895769006428572,3.8819569407574894,-1.9791403688378577,1038.3677762465468,2.0294,8.093982,14.506260000000001,0.0,1.0,-1
3608,Tl2Mo4O13,mp-648007,61,-6.621520681842108,5.562125027648501,-1.928071777960527,2389.59109478363,0.0,7.837221,19.396293,2.0,1.0,-1
3609,PNCl2,mp-648211,86,-4.92308482171875,2.1100490753235097,-0.9547198210866072,1459.1812081834362,3.6005,6.067026,15.508389000000001,0.0,1.0,1
3610,V2PS10,mp-648414,14,-5.463068700480768,2.5112383146920285,-0.9776074181593406,2399.0258220016767,1.1097,7.6750110000000005,24.756753257820893,1.0,1.0,-1
3611,SbP2SN3Cl10,mp-648469,62,-4.147696233676471,2.1250835503217327,-0.9227262830886974,1913.8741878851474,1.8205,8.997154,16.34346,0.0,1.0,-1
3612,Nb2PS10,mp-648932,18,-5.731273360576923,2.603466873438081,-1.0892891597939571,1371.1476027656936,1.3728000000000002,7.386663,14.134319,2.0,1.0,-1
3613,Ti2SCl12,mp-649080,148,-3.900259902666667,2.059455143514736,-1.6129141945941112,2676.440902546545,1.9333,14.42191756020596,14.42191762075158,0.0,1.0,-1
3614,ReTe7O7F32,mp-649107,2,-4.589719873936169,3.8645000168044334,-2.257275272698511,1546.3287790895724,0.5486000000000001,10.863248,12.609442379827195,0.0,1.0,-1
3615,ReTe5O6F25,mp-649177,14,-4.6549880858783785,3.9575290297361336,-2.245561653641892,2341.585818247881,2.1627,9.183991,18.682572,0.0,1.0,-1
3616,NbClF8,mp-649253,54,-4.7550142385,2.9346069967762887,-2.483058529778,634.5333345131259,3.2636000000000003,5.879416,10.681092999999999,1.0,1.0,1
3617,FeSCl7,mp-649334,14,-3.1600665,2.039750164098782,-0.8578498795494447,1094.399970868134,1.3815,6.527972,13.634648875405665,0.0,1.0,-1
3618,Sn(S4I)4,mp-649878,43,-3.667118766428571,1.8544342108185168,-0.5398111385714278,2040.4766746986813,0.9754,13.701363351010912,16.539660216848983,0.0,1.0,-1
3619,RuC3Br2O3,mp-649950,12,-6.8132968744444415,3.058039176448292,-0.9282322920833326,374.57578107928924,2.1478,6.606686123492169,9.566701838213731,0.0,1.0,-1
3620,P6N7Cl9,mp-650015,15,-5.405348325909091,1.9775285811984151,-0.8857265407922076,2025.2539298303373,3.8766,10.677868867176867,30.65109899190893,0.0,1.0,1
3621,Se5SO3F,mp-650178,19,-4.528711068,3.5061461564814196,-1.0177016884783754,1871.1746721483896,1.4033,8.862658999999997,15.515814,0.0,1.0,-1
3622,PCN2Cl3,mp-650336,14,-5.529832861904762,1.93035630279228,-0.6288951666349651,1830.7998227347541,3.4967,10.389318,15.769469659046495,0.0,1.0,1
3623,TeAs(Se2F3)2,mp-650674,60,-4.051578036614584,3.9092495508432847,-1.5257975325741666,4297.68514112273,1.4334,13.387369,19.408205,0.0,1.0,-1
3624,GaBr2,mp-650841,161,-2.8676779427777777,3.7485705010480577,-0.7670284152777778,1220.1297290981745,3.3617,12.984515319864428,12.984515703237069,0.0,1.0,1
3625,Hf(ClO4)4,mp-650960,9,-4.927730386190476,2.8568651160677923,-0.9799570406209522,669.9343546900348,5.2202,7.678936449678758,13.357134593754905,0.0,1.0,1
3626,TeI4,mp-651155,14,-1.9673547895,4.42959911406012,-0.11948451149999995,3810.0210096024125,1.7080000000000002,11.619828,22.942603072189737,0.0,1.0,-1
3627,SeBr4,mp-651332,159,-2.15729783825,3.351731375743245,-0.1485743107187499,3159.4466014742425,2.2103,10.761564165885368,31.501381,0.0,1.0,-1
3628,VSb2NCl14,mp-651728,14,-3.5188574456944446,2.6371381432129564,-1.1383966450288894,2027.07435973746,1.1919,6.434262,25.239745935474467,0.0,1.0,-1
3629,PBr2N,mp-652220,2,-4.5804297925,3.011581822754553,-0.42052701023785705,1129.171517009932,3.1115,9.667442,12.27776684459234,0.0,1.0,1
3630,PNCl2,mp-652364,19,-4.933456431000001,1.9077755123372242,-0.9650914303678568,2017.3652109131501,3.9764,6.4033440000000015,19.918418,0.0,1.0,1
3631,In5Br7,mp-652621,9,-2.8327540359375,4.399038463610848,-0.7313453334375003,3422.720457402454,2.0735,13.392833006908507,19.670254069961068,0.0,1.0,-1
3632,Re(SeCl6)2,mp-652695,43,-3.2021568893333328,2.9799668315370726,-0.9033194319205003,857.6534558612907,0.9031,8.862519897318709,12.724391098144462,0.0,1.0,-1
3633,Sr10Cu5Bi10O29,mp-652781,5,-5.72970198287037,6.816474661456742,-2.0368225832947524,1825.9379324136926,0.0,5.403426053277771,25.14482205435332,2.0,1.0,-1
3634,Mo2Cl8O,mp-653062,13,-3.9323042302272726,2.595463271358524,-1.3045079263481822,1257.8264636964475,0.9251,6.6667369999999995,18.465775761701025,1.0,1.0,-1
3635,P4Se3I2,mp-653559,62,-3.973559817777778,3.2082690696890737,-0.06368169459077361,1272.38794454323,1.7175,7.2392759999999985,16.713714000000003,0.0,1.0,-1
3636,Ta(CoTe)2,mp-653697,62,-6.791805684500001,9.434344360227957,-0.3196026685000007,780.096467682171,0.0,6.5509379999999995,18.110229999999998,2.0,1.0,-1
3637,Ru2S4Cl13,mp-653758,14,-3.3866778419736843,2.1765235991590752,-0.8213725011778946,4829.596326834272,0.0005000000000000004,9.178952,33.967408410667026,0.0,1.0,-1
3638,Re2Te4Cl22O,mp-653823,14,-3.4840665132758617,2.640208930859201,-1.0946649599300002,2111.710740252754,0.08360000000000001,9.612757,19.822071337761347,0.0,1.0,-1
3639,NbTe2(SeI3)2,mp-653891,2,-3.2983462425,4.3239813540221075,-0.3416366474715912,1946.9608042869672,0.9449999999999998,11.549937,15.908188914882865,0.0,1.0,-1
3640,As4Pb8Cl6O11,mp-653995,14,-5.114022272413793,5.7224356060553605,-1.5773644725279317,2723.050998029852,2.1775,6.776066999999999,35.193973917650865,2.0,1.0,-1
3641,Nb6SI9,mp-654051,2,-5.4671839615625,5.300553565613766,-0.6048756089453127,1084.966565165308,0.0,10.356100634247381,11.996489454582159,1.0,1.0,-1
3642,GaAg(PSe3)2,mp-654129,61,-3.988386346375,4.315263003000939,-0.22211713691220186,2195.8529925693583,1.4987,7.722309,23.046631,2.0,1.0,-1
3643,VAg(PSe3)2,mp-6543,5,-4.559408228000001,4.364013947088939,-0.18755796178720274,264.2688581799528,0.0,6.439866721866999,7.674884147233625,2.0,1.0,-1
3644,RhSCl5,mp-657300,9,-3.39214379154762,2.756345752802644,-0.9483505600369054,2257.246189969583,1.5876,6.977175,24.27534276285933,0.0,1.0,-1
3645,Te2WCl6,mp-662513,14,-4.0085281552777765,3.590399878458886,-1.03432435634,1205.7371408263605,0.0,6.979417999999999,13.315209,0.0,1.0,-1
3646,PSeCl9,mp-662547,46,-2.8032553809090905,2.1732764180953903,-0.967450278205016,1311.179975747689,2.244,12.289797217110172,12.289797217110172,0.0,1.0,-1
3647,Re(TeBr2)2,mp-662556,82,-3.975501041071429,5.034998599502369,-0.3642388689285713,1003.939442768488,1.9379,11.056561042597012,11.056561042597012,0.0,1.0,-1
3648,SbRu2C6Cl7O6,mp-662588,14,-6.263562335681818,2.5683395028265084,-1.1594980447872727,1914.1043228476715,2.4952,9.395273,17.09306751449116,0.0,1.0,-1
3649,P2CN3Cl5,mp-662643,61,-5.299067559886363,1.9168236785638897,-0.7372472081211683,4064.57412618329,3.9851,7.939501,29.862452,0.0,1.0,1
3650,TcC4IO4,mp-662721,14,-7.579743975625,2.7944540053597806,-1.002302255625,1601.7729942301835,2.3319,10.160541,13.31951396460892,0.0,1.0,-1
3651,Te3As2(SF4)3,mp-662789,14,-4.22461404425,3.5570458687640087,-1.9139285039327496,1599.9585484841996,2.0709999999999997,8.544205,17.610560028840254,0.0,1.0,-1
3652,SnSe2,mp-665,164,-4.00622805,5.12049911666342,-0.33909644656249976,89.70901303326058,0.8000000000000003,3.8732801074129664,6.904745,2.0,1.0,-1
3653,Tl2S,mp-667,146,-3.2964677344444446,7.453781172973084,-0.5643691254861112,883.8685613973082,0.5885999999999996,9.69436350831683,9.694363554190703,2.0,1.0,-1
3654,ReHg2O5,mp-667291,2,-5.8008199871875,7.162983635179392,-1.5157930798437498,618.8578731248323,1.6555,8.182203,9.248035575437036,1.0,1.0,-1
3655,ReN(OF2)3,mp-667305,14,-5.737501637840909,4.0171893905470215,-1.9504746758654536,1197.7550323318435,2.6214,10.210277,12.259457898528547,0.0,1.0,-1
3656,SeCl4,mp-667320,218,-2.507720506375,2.4124475468818805,-0.80545742945175,4862.786343739591,2.855,16.941885,16.941885,0.0,1.0,-1
3657,In2Cl3,mp-667324,62,-3.1433979708125,3.7268577722028033,-1.2904138927685005,4790.590746713635,2.327,12.773422,25.438141,0.0,1.0,-1
3658,Ag2Pb8Cl4O7,mp-667327,14,-4.722359771309524,7.310081388744856,-1.3842002115534924,1932.7861655986762,2.0734,8.262542,18.413755,2.0,1.0,-1
3659,Re2(HgO2)5,mp-667343,14,-5.49365386,7.579145888825664,-1.4428238080882352,1345.5457792286265,1.1042999999999998,8.883351,12.40367459550677,2.0,1.0,-1
3660,NbTl2PO6,mp-667345,148,-7.001819432666666,6.065275532547113,-2.4306304652738087,1032.6520112461808,2.9007,15.986301359381946,15.986301645691324,2.0,1.0,-1
3661,TeWCl9,mp-669325,2,-3.6869854159090902,3.1511487212037994,-1.1973412167581818,664.518373004914,0.0,6.578347,11.564035489371562,1.0,1.0,-1
3662,ReTe3Br5,mp-669328,4,-3.619514976111111,5.075188173016218,-0.2796191233333332,1267.5604259229574,1.2816,8.893907,12.745045373420565,0.0,1.0,-1
3663,TaTeCl9,mp-669345,15,-3.885842050454545,2.867571939140547,-1.4962295640309091,1453.767374669593,2.7788,11.808025743159988,20.089408197753762,0.0,1.0,-1
3664,NbTeCl9,mp-669348,15,-3.6616234636363636,2.472864794951413,-1.431690303576364,1449.3299981581529,2.2169,11.810854624218946,20.075699887224506,0.0,1.0,-1
3665,Cu3BiSe2IO8,mp-669425,59,-5.042751024333333,5.7027312478189085,-1.1314967816458326,473.13650102100894,0.0,6.466615,9.823568,2.0,1.0,-1
3666,Te2S4(NCl3)3,mp-669465,2,-3.7857304094444437,2.4208056100353668,-0.7123617049433327,1021.4501707523227,2.119,9.513501,11.507789868636374,0.0,1.0,-1
3667,HgS4(NCl)3,mp-669471,14,-4.2410629697727265,2.924459205895804,-0.4397348492654545,1083.903051436981,1.8919,6.374055,17.726754999999994,0.0,1.0,-1
3668,PtI4,mp-669496,61,-2.56323682275,6.212422615679157,-0.1298451887499997,1502.6201481763824,0.6923999999999997,6.990139999999999,16.00809,1.0,1.0,-1
3669,TaP2NCl12,mp-669508,15,-4.2434100184375,2.3618421473931828,-1.3882204396026792,959.4621550575214,2.8754,8.278797810414021,15.847797803026928,0.0,1.0,-1
3670,KNbCl6,mp-671855,14,-4.219644376875,2.434793179513776,-1.8777931459450008,3761.636804961728,1.9232,7.024136574466008,23.8205566747202,2.0,1.0,-1
3671,TeS7Cl2,mp-672186,62,-3.7293473,2.1530423508980645,-0.7331541048394996,1304.8387345566987,2.2625,9.204886,14.328529999999999,0.0,1.0,-1
3672,BePbF4,mp-672214,62,-5.285131069583334,5.46557183204092,-3.0960876578766667,355.10951290241525,5.1996,5.410088,8.992202,2.0,1.0,1
3673,N2,mp-672233,194,-8.3226084475,0.9851330091447384,8.881784197001252e-16,94.43870960872043,6.6385000000000005,4.043190647503652,6.670694,0.0,1.0,1
3674,N2,mp-672234,198,-3.1240641875,0.5361421203459383,8.881784197001252e-16,173.52617271807617,3.0175,5.5776980000000025,5.5776980000000025,0.0,1.0,1
3675,TaAsPCl13,mp-672248,36,-3.8117541553125,2.4162269625142887,-1.422363868184464,1027.7499742038929,2.6094,9.68270858941629,12.088625,0.0,1.0,-1
3676,AlBiCl6,mp-672273,14,-3.59447549625,2.937267954310283,-1.699635996195,1014.6170904859636,3.7417,7.885111999999999,12.135467,2.0,1.0,1
3677,Al(ICl2)3,mp-672352,15,-2.65355839975,2.6596977578519088,-1.069486446206,1549.37896312978,1.7106,14.497475980307364,14.975431871370555,1.0,1.0,-1
3678,Re2Cl7O3,mp-672376,14,-5.28193292625,3.8586859018830575,-1.4150156251308328,1150.8669542972166,0.3182999999999999,6.304317,17.158087973976734,0.0,1.0,-1
3679,PbI2,mp-672671,166,-2.91430609,5.511249517461467,-0.6607486566666666,416.7058772224466,2.3494,22.11188068318613,22.111881055353322,2.0,1.0,-1
3680,Sb2Se3,mp-672706,62,-3.909600914,4.339933896914323,-0.16045353140624954,735.2397400908047,0.4983,3.808355,15.055698999999999,1.0,1.0,-1
3681,Sn3(P2O7)2,mp-673118,2,-6.823591193809524,3.6357459351914576,-2.38924949984694,321.54258531247416,2.2258,5.672783,8.817929092815046,2.0,1.0,-1
3682,Sn7(SBr5)2,mp-674324,1,-3.4005830210526318,3.746895641882797,-0.6962541726973684,750.8043786552089,2.0181,6.70564,11.420516435793171,2.0,1.0,-1
3683,Zn(InS2)2,mp-674328,10,-3.950663959285714,4.168547707853136,-0.9999395967857142,337.24670501570165,1.3922,3.9653739999999997,12.786933045744007,2.0,1.0,-1
3684,Tl6PbI10,mp-674339,159,-2.534747089117648,6.458831838652498,-0.5863534950000002,1389.6261223643273,1.2149,10.889901327338183,13.530674,1.0,1.0,-1
3685,TiPb9O11,mp-674350,75,-5.903816438095237,8.699629288013428,-1.7127861617658733,398.67241191979264,1.7973,4.734389,9.17648,2.0,1.0,-1
3686,Tl3PbCl5,mp-674359,19,-3.2876708144444446,5.8920877020110565,-1.3913529373666669,1124.6122587800842,3.3948000000000005,8.721629,14.747176000000001,0.0,1.0,1
3687,Tl3SiF7,mp-674366,1,-4.803576148181818,6.315302939427182,-2.762292157575456,407.1473941738786,3.6778,6.932213000000001,8.227348536569847,1.0,1.0,1
3688,Tl5SnF9,mp-674395,26,-4.221217987,7.362157633851278,-2.3143654563806666,591.669803451206,2.9278000000000004,7.223378,9.840766,1.0,1.0,-1
3689,Nb17Ir3S40,mp-674499,12,-6.884227684,4.598747765888984,-1.2649431570833345,1241.6485227603814,0.0,19.117838759291804,24.726136713686447,2.0,1.0,-1
3690,Hg2SbF6,mp-674503,15,-3.51554356,6.042302912826504,-2.0422476963488894,350.0810399764489,0.0,7.557839945995813,8.002094666334434,0.0,1.0,-1
3691,CuSi2P3,mp-674984,8,-5.2312066575000005,2.667371997793621,-0.03292460845238073,264.75060940126383,0.0,6.441671685555076,11.476084258633733,2.0,1.0,-1
3692,Na3(TiS2)10,mp-675056,8,-6.354556009696969,2.994478129950835,-1.7376264898737368,659.3069252160802,0.0,9.056813910696961,13.127690450245085,2.0,1.0,-1
3693,Nb3IrSe8,mp-675066,9,-6.2979593725,6.187009719985805,-0.7054895923958332,591.8649747774748,0.0,6.966751632080549,15.231962040315262,2.0,1.0,-1
3694,TlPF6,mp-675283,166,-4.8741531375,4.4240408037200405,-2.836873181963928,131.12563063684135,6.1556,5.790299765438919,5.790299838905063,0.0,1.0,1
3695,Nb9IrSe20,mp-675290,2,-6.404155864333331,6.074456382340858,-0.7485423532291662,712.8175627476038,0.0,6.9067289999999995,11.53338821442628,2.0,1.0,-1