,pretty_formula,task_id,spacegroup.number,final_energy_per_atom,density,formation_energy_per_atom,volume,band_gap,min_abc,max_abc,Dimension,Dim,is_uv
660,Li(BH)6,mp-1198726,205,-5.116376046346153,1.1546107546172208,-0.3914765494271792,895.7524133156955,5.609,9.639681,9.639681,0.0,1.0,1
661,CdSi3AsH27C9I2,mp-1198755,19,-4.887059867093024,1.7038271302712753,-0.3424112249474415,5151.380074707933,3.2214,15.97498791,19.22588906,0.0,1.0,1
662,InSeClO3,mp-1198762,61,-4.924969896041667,4.252304212288867,-1.551896130933958,866.071464354568,3.3801,7.15827,16.664532,2.0,1.0,1
663,Si(H3C)2,mp-1198774,2,-5.1013958532905965,0.8864346848325071,-0.28836303237059746,2832.4309368584477,3.5656,10.383185525894357,17.940189520391986,0.0,1.0,1
664,Te6RuBr8,mp-1198778,14,-3.082255115166668,4.583708150732488,-0.33361461150000005,2182.171306933204,1.4039,9.833324000000001,17.126028,0.0,1.0,-1
665,Te7WBr5O,mp-1198792,54,-3.449726227678571,5.3038140678891335,-0.3754025741964274,1869.1855794314874,0.5302000000000002,7.772822,27.610625,1.0,1.0,-1
666,NbBi4BrO8,mp-1198841,33,-6.365421739464287,8.026152008359063,-1.9894436987499995,940.7147477347437,1.4701000000000004,5.580904,29.812772,2.0,1.0,-1
667,CrB6P2(H17C3)2,mp-1198848,61,-4.8425504670918365,0.8671499455355349,-0.22892392617801746,4368.263139429546,0.7475999999999999,14.60560709,17.44504702,0.0,1.0,-1
668,CdSb5OF28,mp-1198900,14,-4.348425783,3.5005604309751326,-2.474455349416286,2408.1849191011443,0.0242,10.231649,18.603508556314853,1.0,1.0,-1
669,TlSb3F18,mp-1199017,147,-4.378286468863636,4.1600455214461585,-2.545624691200909,727.7828040839148,2.2625,8.875795,9.7304281405599,2.0,1.0,-1
670,InSi4H38C14Cl,mp-1199230,2,-5.116477185517241,1.2116994739163156,-0.3235166041520678,1285.6322495519555,3.9306,9.682889,12.602371868170252,0.0,1.0,1
671,InTe14(IrBr8)2,mp-1199238,2,-3.1171096587878786,4.850405322802741,-0.370879894242424,2440.354346499968,0.0040000000000000036,11.496124,17.8619469894025,0.0,1.0,-1
672,Si4Ge(H3C)11,mp-1199342,2,-5.084749101836733,0.9972232555845566,-0.2943372352951013,1166.8186040449584,3.7710000000000004,9.623436,14.311517847520713,0.0,1.0,1
673,Si(H3C)2,mp-1199394,9,-5.099909788080809,0.9017617510387178,-0.2868769671608076,2355.936565391245,3.6294,9.847615524763599,26.28352001951757,0.0,1.0,1
674,Si2BPH28C9,mp-1199409,14,-5.099870100914634,0.8028890567861128,-0.30238330845361155,1938.1096819119118,5.16,9.431222,15.846283999999999,0.0,1.0,1
675,Cd2Sb5O2F31,mp-1199437,14,-4.1775344661250005,3.818101380148213,-2.3020551959847504,1265.2217565699925,0.0,10.562483,11.696475,2.0,1.0,-1
676,BCl,mp-1199460,205,-4.90130150875,1.8434931388811349,-0.9346801349633332,2000.2855081645728,0.0,12.59981,12.59981,0.0,1.0,-1
677,Ta4CoTe4,mp-1199549,55,-7.838804280833332,9.086616443309037,-0.3818451658333338,945.251346588818,0.0,4.813692,18.458264,1.0,1.0,-1
678,AlSnPH18(C3Cl2)2,mp-1199681,62,-4.822063899838709,1.3764760250449282,-0.5685225592506912,1972.0981229438705,5.2635000000000005,9.193128999999999,18.888509,0.0,1.0,1
679,B8P2H39RhC13,mp-1199795,14,-5.3049159975,1.1483339361419098,-0.25850500300247864,2584.3071167343464,2.2867,10.28574546,17.17311098228683,0.0,1.0,-1
680,AgSb3IF24,mp-1199846,15,-4.041075776896552,3.658184373868096,-2.28808351655954,958.7013111082242,0.3242999999999998,9.828998088684367,10.59032803754558,1.0,1.0,-1
681,ZnSb2Cl2O3,mp-1199855,62,-4.7782465575,4.337860408367743,-1.6829410012837505,655.1006032541412,3.7206,5.6806,17.552625,2.0,1.0,1
682,P2S7,mp-1199938,14,-4.540917100555556,1.8905018183742601,-0.636750346001985,1006.2568049446724,2.0353,6.7174580000000015,13.092934060865655,1.0,1.0,-1
683,Ga16Rh3,mp-1200062,68,-4.005056708421053,7.128488462297876,-0.29229609526315786,663.5572370528778,0.0,6.583489999999999,15.658939140972734,2.0,1.0,-1
684,Cu2MoSeO7,mp-1200069,14,-5.805261511136364,4.387194658242929,-1.3753864085085228,626.7722027826396,0.0,8.343288000000001,9.158443,2.0,1.0,-1
685,Si4Te2H44Pd(C8Cl)2,mp-1200140,15,-5.0422677252898565,1.4495056773073474,-0.3197699571130423,1790.3016875168755,1.9208,13.067531673447018,20.87473705429805,0.0,1.0,-1
686,Cu2As9P3S9I2,mp-1200181,14,-4.4468298255,3.3107978075837674,-0.4198190014535726,2882.3254280959363,2.0858,12.454022,16.350903799587623,1.0,1.0,-1
687,Ga21Rh4,mp-1200191,64,-4.0217966248,7.117549709981067,-0.2999071435000002,875.2583714183568,0.0,6.5712160000000015,20.549065913891198,2.0,1.0,-1
688,PH9PtC3Cl2,mp-1200217,14,-4.90983492421875,2.6729369829957923,-0.4829682006357139,850.0255040829531,2.3985000000000003,6.749072,12.014841872722295,0.0,1.0,-1
689,SbAsH6(CF4)2,mp-1200260,73,-4.801443226527779,2.747267413857982,-1.5767486663188888,915.6866472584476,5.1941000000000015,10.769259400568359,10.769259400568359,0.0,1.0,1
690,SrMo2Se2O11,mp-1200408,2,-6.3639673903125,4.0381971590469,-1.9881604887565103,504.481021880736,2.7306,8.101713,8.964962163613631,2.0,1.0,-1
691,SiP4H28(C5Cl2)2,mp-1200604,2,-4.997894273617021,1.2242140527933114,-0.4218454461422492,599.6995642526897,3.3153,7.0697740000000024,9.2629725532838,0.0,1.0,1
692,InSb3F18,mp-1200631,165,-4.514823955,3.9304668778772522,-2.664433506882727,694.6137240738707,3.4916,9.043803990605943,9.806419,1.0,1.0,1
693,Bi2Se5Cl7,mp-1200639,19,-3.3025254323214286,4.189651218609798,-0.8713409433599105,3363.943410034648,1.4358000000000002,12.082925,22.582041,2.0,1.0,-1
694,P4H36W(C6Cl)2,mp-1200698,121,-5.150572946363637,1.4622624265109387,-0.34201185402046635,634.8608357040141,1.0348000000000002,9.543304126157198,9.543304126157198,0.0,1.0,-1
695,P2O3F4,mp-1200699,54,-6.006290240555555,2.1254359320670533,-2.7567603889614283,581.0752102488765,5.831,6.7601,12.695943,0.0,1.0,1
696,In4As5(BrO4)3,mp-1200791,2,-5.4026747931250005,4.262151979693393,-1.6459626185416667,986.146440815715,2.963,8.168077,12.174321034759107,2.0,1.0,-1
697,Sc13Os3Br16,mp-1200815,58,-5.78090652984375,4.306752195196778,-1.33731508125,1876.6141630460031,0.0,9.026649,19.322725,2.0,1.0,-1
698,AlH6C2SeCl3,mp-1200831,57,-4.549172311538461,1.6480958003006363,-0.7880168033725956,976.7979597964244,4.9165,6.606856,13.427082,0.0,1.0,1
699,SiP2H18(C3Cl2)2,mp-1200839,14,-4.884380916290323,1.3273958161873276,-0.5313733758175118,805.7584031420787,3.8654,6.920692999999999,13.840422481741376,0.0,1.0,1
700,AlBi2Te2BrCl4,mp-1200931,15,-3.6056981064999998,4.784438810777951,-1.1592404308040003,1279.8004912658628,0.8872,11.655207668341994,13.778186662408373,2.0,1.0,-1
701,Re2S(ClO2)4,mp-1200983,15,-6.2072107045000005,3.7637115144044175,-1.7176925782443333,1189.9727945503205,2.0966,9.741843352677355,11.115958807371321,1.0,1.0,-1
702,Sb2Te3,mp-1201,166,-3.6675758519999997,6.121655030547824,-0.12999479799999988,169.89340676713044,0.16110000000000024,10.744895720462997,10.74489620571032,2.0,1.0,-1
703,ZnAs2S4(O2F3)4,mp-1201031,14,-4.9742820209259255,2.4732375877188693,-2.1786573822881494,1878.5539282729746,3.2295,8.820295,15.342753788072107,0.0,1.0,1
704,BPb3O4F,mp-1201056,57,-6.118033883055558,7.578714000483845,-2.093528884206296,626.9988693369289,2.3538,6.6305,12.158541,2.0,1.0,-1
705,Ge2RuC4(Cl3O2)2,mp-1201091,14,-5.892809962352941,2.25905651114034,-1.1908490270329413,839.5963578482655,3.1025,8.660730000000001,12.21208235537658,0.0,1.0,1
706,GaH6C2SeI3,mp-1201119,14,-4.110838527692308,3.1241445388597184,-0.3425288205049034,1189.463835084954,2.6548,7.881552,13.075353,0.0,1.0,-1
707,Be4N6O19,mp-1201141,205,-6.39249482512931,2.0629422787349934,-1.4497317736820683,2730.8463635462367,3.7137,13.97759403,13.97759403,0.0,1.0,1
708,AsClOF8,mp-1201143,33,-3.807738818181818,2.7570542742143185,-1.8510991890027269,670.6138418217076,2.8689999999999998,5.375914,15.038974,0.0,1.0,-1
709,TeS7Br2,mp-1201162,62,-3.62999887325,2.5950143503456,-0.5571905654375001,1310.1561586877208,2.0936,9.294203,13.92274,0.0,1.0,-1
710,P4Se3Br2,mp-1201169,15,-4.1075419802777775,2.620958817673245,-0.17257187375744032,1319.285877801188,2.32,10.65504147682683,13.343294536795625,0.0,1.0,-1
711,Pb3(NO4)2,mp-1201318,62,-5.967327092884616,5.902726825835072,-1.2743879132507685,875.0189510194427,2.1278999999999995,5.8895870000000015,18.925835,1.0,1.0,-1
712,Si4Te2H44Pt(C8Cl)2,mp-1201326,15,-5.0528292039855085,1.5919000137267088,-0.31741801696811545,1815.1344348482053,2.1648,13.090286536992116,20.963289332207815,0.0,1.0,-1
713,ZnIn2(SeO3)4,mp-1201376,14,-5.307311932894737,4.308619763373438,-1.5339044273355256,618.8570938374116,3.8857,4.896089,15.713749344071198,2.0,1.0,1
714,Sr15Ti23O61,mp-1201432,10,-8.210535629343433,2.8328913852070383,-3.5042312982617845,3975.604160774601,1.8133,5.64097174640507,30.111338103146373,2.0,1.0,-1
715,Cs3Nb9(TeO8)4,mp-1201443,63,-7.672716346979167,4.835179138340342,-2.6303736137248563,1550.4118043899539,1.4336000000000002,7.5353210000000015,19.677018494613076,2.0,1.0,-1
716,Sb2Os(OF7)2,mp-1201470,2,-4.864371292631579,3.9921029342562364,-2.3451939378505258,608.731972930004,1.4215000000000002,7.731876,10.451023094922046,0.0,1.0,-1
717,Ga2Cu(SeO3)4,mp-1201552,14,-5.4141213069736835,4.2576038989090765,-1.4621724011513155,1108.9358032677233,0.1095999999999997,4.6768,17.29938665791461,2.0,1.0,-1
718,Tl3AsSe4,mp-1201566,62,-3.4981283615625,6.374011979984669,-0.2821629546093747,1046.1444191782114,0.8419999999999996,9.324005999999999,11.534771000000001,2.0,1.0,-1
719,In2BiSe4I,mp-1201600,62,-3.585841801875,5.6876015153376605,-0.4732092649218749,1029.2803758919297,1.4914999999999998,4.191466999999999,17.31512,1.0,1.0,-1
720,BPBr6,mp-1201622,62,-3.2110283228125,2.857075220726648,-0.4717487137797622,1211.7112001483804,2.7254,7.609116999999999,13.342845,0.0,1.0,-1
721,Tl2Mo3SeO12,mp-1201686,159,-6.298408549444442,5.591055951790072,-1.7922345409635403,574.7168284589719,2.3967,7.3787111000185535,12.188836,2.0,1.0,-1
722,WS2O9,mp-1201710,14,-6.394385133958332,3.7443638572875613,-1.9140438487499989,695.3090627209912,3.8238,7.580214999999999,12.030292,2.0,1.0,1
723,SI3O10,mp-1201745,33,-4.597755464553573,3.9672950867383188,-0.9904924360267856,1917.9031401116795,0.0,9.164381,20.994607000000002,1.0,1.0,-1
724,Si(H3C)2,mp-1201793,2,-5.1028979404444454,0.8883431517975623,-0.28986511952444405,2174.112230724068,3.8705,9.953195904636543,16.973927189006673,0.0,1.0,1
725,Si(H3C)2,mp-1201857,14,-5.101198515648148,0.8916567736012223,-0.2881656947281478,5198.4784331828005,3.6196,10.146880312777151,33.72065745,0.0,1.0,1
726,Y2Te3MoO12,mp-1201916,62,-6.879999671805559,5.294374499621402,-2.4008066900462968,1064.557327479817,2.9933,5.265948000000002,18.008011,2.0,1.0,-1
727,Cu3Pb2Se2(NO7)2,mp-1202064,36,-5.6207840223913035,4.713377700467434,-1.183436281389023,715.1498648140985,0.4718,5.84839,19.663535999999997,2.0,1.0,-1
728,Sr5Ti7O19,mp-1202132,47,-8.117008958387098,2.569268799270488,-3.4594768845295687,696.1756108169627,1.8352,3.835574,32.327187,2.0,1.0,-1
729,AgIO3,mp-1202188,61,-4.1320882435,5.79831119606354,-0.7133752385833333,647.8466721141118,1.8223,5.912283,17.396202,2.0,1.0,-1
730,PH18PtC6S3ClF6,mp-1202301,14,-4.967476432013889,1.983930225415507,-0.9298025693335106,1881.240320533328,3.2089,8.747135,25.112824,0.0,1.0,1
731,InSi2H19C7Br2,mp-1202311,2,-4.962883018064517,1.6199448579369196,-0.3493789433477418,1779.5957565899325,3.1192,9.885653,14.613885570993155,1.0,1.0,1
732,Si4H36C13,mp-1202323,198,-5.183150413584905,0.8742099155737055,-0.3099442817041507,2315.5876000149083,5.018,13.229814000000001,13.229814000000001,0.0,1.0,1
733,B10H18C2S,mp-1202352,14,-4.965075388225807,0.916544671235054,-0.22198735983714954,2642.809008571527,2.0905,7.314491379004883,33.28953062,0.0,1.0,-1
734,Zr2Te4Br2O11,mp-1202377,2,-6.308772044210527,4.781896099111495,-2.116941611776316,714.4080419698068,2.8489000000000004,7.9653350000000005,10.826685479330877,2.0,1.0,-1
735,Si4Bi2AsH38(C7Cl)2,mp-1202405,2,-5.065200525,1.6267472639166531,-0.32859285301770463,1801.830917614409,2.3631,9.848103,14.380381367285292,0.0,1.0,-1
736,InGe2P(H3C)8,mp-1202409,2,-4.9199080237500015,1.4918171943675334,-0.2260482800125393,915.7412812034488,3.3686000000000003,9.813482,10.358243827176981,0.0,1.0,1
737,Sr5Ti8O21,mp-1202462,10,-8.236936945,2.7037395309030634,-3.5083982025367635,2842.4077611183793,1.8579,5.651008645726754,32.01610515707209,2.0,1.0,-1
738,CuGeO3,mp-1202570,55,-5.9028110478750015,4.791829000217189,-1.610964861625,1021.2219494029704,0.0,8.694339999999999,11.94106,2.0,1.0,-1
739,PH11(C2Cl)2,mp-1202609,61,-4.898148347569443,1.126705168292269,-0.4278586870089687,1898.3722798444323,3.9324,10.817841,13.754082999999998,0.0,1.0,1
740,CuH6C2SeI,mp-1202646,14,-4.499331911136363,3.1495444900349265,-0.2255944446876137,631.5801254113553,2.4969,7.2148080000000006,11.42732997392628,2.0,1.0,-1
741,CuP4Se3I,mp-1202691,64,-4.302281840833333,3.6297011197324163,-0.1062710448685517,1008.7128134817896,1.1589,11.018292,12.132443516586466,1.0,1.0,-1
742,TaTlSe3,mp-12027,62,-5.57484866,7.495276937329653,-0.6334156514062499,551.390418635224,0.3226,3.6507129999999997,15.345726,1.0,1.0,-1
743,IrClOF6,mp-1202713,14,-4.109597099027777,3.4299267803788047,-1.5076462469888894,1385.2379723840072,0.02670000000000039,5.690647,19.726956,0.0,1.0,-1
744,BPb2O3F,mp-1202733,176,-6.315334278571428,6.940766691741003,-2.2778724998723794,706.5472651288333,3.1978000000000004,7.412006442536661,14.85043,2.0,1.0,1
745,Si10(H3C)19,mp-1202794,5,-5.099972204825582,0.9219947723711912,-0.2833796094923253,2040.6047324424896,3.2821,10.094631846037974,22.86568193903225,0.0,1.0,1
746,LiCu2Si12(H3C)27,mp-1202845,2,-5.0471521198780485,0.9853511250999486,-0.2768037221670997,2955.855726719643,2.7035,13.609507685526884,17.85671740505579,0.0,1.0,-1
747,Zr2Te4Cl2O11,mp-1202980,2,-6.363333521052631,4.542966871281283,-2.2118268321194736,686.9903808018138,3.1681,7.932985,10.547910545753172,2.0,1.0,1
748,TaBr5,mp-1203015,12,-4.283450050555556,4.098239815896005,-0.9430483288888896,1411.175970582986,2.0349,6.791952784691088,14.440052490154633,0.0,1.0,-1
749,TcF4,mp-1203061,61,-5.556591415,3.5758726850929072,-2.348027325952,646.3836200829775,1.3037999999999998,5.484986,11.781774,1.0,1.0,-1
750,Ga7Sb7(Te4Cl13)2,mp-1203106,2,-3.3837973461458333,3.4344221702930406,-1.1370013037970832,3174.6136049901647,1.4002,11.059774,19.399094936551162,0.0,1.0,-1
751,Fe(SiO3)2,mp-1203128,15,-7.304677295555559,2.932975797352978,-2.631163547500001,471.07475874702004,0.7803,5.327666218371887,19.430310887639166,2.0,1.0,-1
752,InH12C4Se2I3,mp-1203230,14,-4.392938060113637,2.474609389226889,-0.2975059116194323,1915.3620459354465,2.3882,8.538069,25.579049907918712,0.0,1.0,-1
753,KGaH9C3F,mp-1203242,219,-4.754703089666666,1.530401702863077,-0.594901980617999,1501.0220311718756,3.9788,12.851900507516856,12.851900507516856,0.0,1.0,1
754,S7N,mp-1203253,62,-4.4257270753125,1.6266205226745276,-0.3928019183443752,973.7365617071592,0.6464,8.134116,13.830841,0.0,1.0,-1
755,SnH12C4(SCl2)2,mp-1203285,14,-4.5877883499999985,1.689676520817624,-0.5984440790317389,756.3092135185153,2.6859,7.250308,12.765721000000001,0.0,1.0,-1
756,Ga2Hg3Cl8,mp-1203326,14,-2.5641232851923075,3.960821937258483,-1.2565817533523076,1718.6199066472052,2.5314,7.409572,15.728741000000001,0.0,1.0,-1
757,Sb2Cl7O6,mp-1203379,14,-3.8123156150833335,2.5505829408510707,-0.978385473104667,3060.8779538781127,0.0906,9.858171,21.955004000000002,0.0,1.0,-1
758,Sn2W3Cl14,mp-1203382,173,-4.709709231052631,4.157056972651408,-1.3177388734547368,1026.8134339455685,0.7641999999999998,9.729372593340845,12.52539,2.0,1.0,-1
759,Te2NO7,mp-1203388,62,-5.553747510499999,3.8974733519528133,-1.157874277613,649.6533383284569,0.0,4.539933,15.761576999999999,2.0,1.0,-1
760,Si8C3Cl20,mp-1203441,15,-4.463857351209677,1.8951548917815804,-1.3619259384741935,3398.8801799543544,4.6567,17.128823130492798,20.797129067626237,0.0,1.0,1
761,CoP4F12,mp-1203442,15,-5.1310404829411755,2.2009215125741335,-2.5466838449156297,619.889918546818,1.3125,7.8746470400043975,13.03418604642952,0.0,1.0,-1
762,In2Te9RuCl8,mp-1203469,15,-3.4471116097500003,4.382146751035831,-0.7921979448040002,1335.9123713398815,1.3095,10.47463956473243,12.110055989726384,1.0,1.0,-1
763,Ba(BH)12,mp-1203559,159,-5.276748211399999,1.6283248039928062,-0.4388077307375988,569.3539598634559,5.8199000000000005,7.41089086199662,11.970462,0.0,1.0,1
764,TiP2(S4Cl)2,mp-1203568,14,-4.825656517307691,1.924889590115913,-1.0553730843843223,1508.7721920901095,1.8405,7.1783800000000015,17.5630723486049,0.0,1.0,-1
765,TcI4,mp-1203591,14,-3.283529334,4.778420054176908,0.0078047400000002655,1683.6563345533611,0.0,7.004060000000001,16.865088624665805,1.0,1.0,-1
766,CuAs7PS7Cl,mp-1203697,14,-4.490693033676472,3.1409123623555213,-0.5088635388944963,1858.5846185397838,1.8362,9.694321,14.063424849198327,1.0,1.0,-1
767,B5TeH5C,mp-1203749,2,-5.259201560416667,2.0731929900559165,-0.09539124449444418,636.6181653652616,2.157,7.187053999999999,10.226137210457818,0.0,1.0,-1
768,CuP2H18C6Cl,mp-1203798,198,-4.991864947633927,1.1943560505244668,-0.3541658949754581,2793.47477595354,3.006,14.08364009,14.08364009,0.0,1.0,1
769,TiPb(S2O7)3,mp-1203799,14,-6.2682647460344825,3.022955343734755,-2.074987051839081,1721.4148206393695,2.7366,7.229603,18.234946739797326,2.0,1.0,-1
770,SF4,mp-1203812,19,-3.98438035575,2.0802428165717832,-2.153342275327,690.0561669342453,4.8812,7.078685000000001,13.670779999999999,0.0,1.0,1
771,Ga8Sb7Se8Cl29,mp-1203849,2,-3.4660962719230763,3.160606870750416,-1.2073127556401924,3225.787932724071,1.6847,11.141573,19.548738363013406,0.0,1.0,-1
772,Pb8Cl4O7,mp-1203866,15,-4.844243216184211,7.546510143144211,-1.4528622294363165,1682.3497292917132,0.0,13.670083385565903,22.0975523085115,2.0,1.0,-1
773,Hg2ClO6,mp-1203944,14,-3.5183091098611112,5.890712041536814,-0.4810641632788888,1201.1477328828662,0.10470000000000004,7.388188,14.652319,1.0,1.0,-1
774,CoP3H33C11I,mp-1203987,14,-5.039374915969388,1.278175649940858,-0.27859766046274,2308.0070856221664,1.8674,9.42183135276082,16.83083137,0.0,1.0,-1
775,W15I47,mp-1204035,5,-4.43271447532258,5.491112112864985,-0.14238399217741873,2637.608602763409,0.07160000000000011,12.54633648887216,21.62318338235324,1.0,1.0,-1
776,Se2S2O7,mp-1204052,14,-5.342032294318182,2.9334025935670645,-1.3731722061079557,756.3859146372826,0.018400000000000027,5.853242,17.659414181460782,0.0,1.0,-1
777,InH12C4Se2Cl3,mp-1204093,61,-4.5347993064772725,2.3236514823681267,-0.4762073813821589,2511.1063868075394,2.9381,11.66505947,18.30356837,0.0,1.0,-1
778,BeH12C4(SBr)2,mp-1204117,60,-4.733778548095239,1.7287882365010696,-0.4602924330804764,1126.070848325315,4.4445,10.106734,10.826105,0.0,1.0,1
779,Mo12PO40,mp-1204131,227,-6.917939775188677,1.76289533119896,-1.9553808889353097,3432.8569082593126,0.0,16.932596771181668,16.932596771181668,0.0,1.0,-1
780,Si3Ge2(H3C)11,mp-1204200,2,-5.056986045612245,1.1151798266366888,-0.28294736611142834,1176.0862161966686,3.5394,9.616017999999999,14.431340749566305,0.0,1.0,1
781,Mo2PbSe2O11,mp-1204412,2,-6.2094198109375,4.795472302455827,-1.7071650458398435,507.6305729621811,2.5052000000000003,8.099061,9.004535840889856,2.0,1.0,-1
782,AsC3S3NF11,mp-1204430,14,-5.176219715789474,2.207323865394892,-1.684801096570789,1294.346861500672,0.5439999999999999,6.032938,15.49164322281726,0.0,1.0,-1
783,PH18PtC6S3BrF6,mp-1204443,14,-4.952704850972221,2.1233590478228126,-0.9043900004235113,1896.758829131499,3.0185,8.721959,25.031113,0.0,1.0,1
784,Si(H3C)4,mp-1204470,62,-5.109609140441176,0.6773988424369773,-0.3325928606435289,865.0661442424306,5.4051,6.865645,14.218704999999998,0.0,1.0,1
785,NO3,mp-1204579,14,-5.78374100796875,1.5697754329511733,-0.6113738595012501,1049.4398789468519,0.0041999999999999815,6.661257000000001,16.916281144363378,0.0,1.0,-1
786,Si10BiTe2H73C25,mp-1204603,14,-5.08011225740991,1.2353650647159058,-0.2909224362320715,6015.867498481102,1.9501,9.862039020848703,32.7345842,0.0,1.0,-1
787,FeAs2S4(O2F3)4,mp-1204738,14,-5.097498251666667,2.388224239855536,-2.136049195621481,1918.8250947938654,3.2335,8.927791000000003,15.45991816266506,0.0,1.0,1
788,Al2Bi7Ru(BrCl4)2,mp-1204779,14,-3.964744272,5.08470997324526,-1.099722153054,2692.7124553203257,1.3157,11.901421000000001,18.172640630587125,0.0,1.0,-1