,pretty_formula,task_id,spacegroup.number,final_energy_per_atom,density,formation_energy_per_atom,volume,band_gap,min_abc,max_abc,Dimension,Dim,is_uv
1976,Nb2Se,mp-27793,12,-8.412041799999999,7.711559572552706,-0.5125346141145831,228.05530197361432,0.0,7.2639752313831565,9.365978365873213,2.0,1.0,-1
1977,B4H5,mp-27798,14,-4.930377751458334,0.8821485740648632,-0.1619054858768515,1454.2125440034838,2.8856,6.116798,17.019605140735784,0.0,1.0,-1
1978,TlAgI2,mp-27801,140,-2.51002893875,6.5962552932416045,-0.4494703854166669,284.9997257200932,1.8257000000000003,7.1905826014087335,7.1905826014087335,1.0,1.0,-1
1979,Ni(NF7)2,mp-27806,87,-3.341194963529412,2.6163497345063584,-1.0230312618482358,223.8409838901099,2.3579,6.7837555470345485,6.7837555470345485,0.0,1.0,-1
1980,Mn2O2F9,mp-27807,15,-4.78644342173077,2.9273195946203,-1.9133192078415653,709.8877960833377,0.6096000000000004,9.319765685391078,9.882157737576646,1.0,1.0,-1
1981,Te6Cl2O11,mp-27808,63,-5.030281967368421,5.166652772394548,-1.4476594573826314,650.8255470900721,2.9285,6.904345177906809,15.680209,1.0,1.0,-1
1982,Li2Te2O5,mp-27811,14,-5.339396102222222,4.339423788817056,-1.8579766647685187,534.3191585237438,3.4818,4.868169,12.29431501418184,2.0,1.0,1
1983,CS14,mp-27814,166,-4.413141546666666,1.5236988932035749,-0.5565656242500002,502.3150127420613,2.6958,7.964158702767103,7.964158840180173,0.0,1.0,-1
1984,NbCl3O,mp-27815,136,-5.7343924535,2.6497454158015685,-2.1126877657060006,539.6074275232534,2.4319,3.8702910000000004,11.80775,1.0,1.0,-1
1985,Ag3O,mp-27819,162,-3.41400716375,8.823462748311494,-0.2281737940624997,127.82412648175848,0.0,5.043357,5.409800667365204,2.0,1.0,-1
1986,B7H10,mp-27820,19,-4.7956957269852944,0.8912155211133224,-0.13963049112450926,1278.2708472858305,2.5117,9.178875,13.549423,0.0,1.0,-1
1987,PICl6,mp-27824,113,-2.770790910625,2.1339044670864697,-0.9632403685164288,576.7732629670904,1.7963,5.660678,10.094117,0.0,1.0,-1
1988,Tl2SnCl6,mp-27832,225,-3.2268313722222213,4.548495975429054,-1.42061096384,270.2260388546169,2.6353,7.256837491205242,7.256837491205242,0.0,1.0,-1
1989,Tl2TeCl6,mp-27833,225,-2.9217987144444444,4.4567013726869416,-1.2118306310622224,279.10423841983766,2.6503,7.335456451564688,7.335456451564688,0.0,1.0,-1
1990,Tl2PtCl6,mp-27834,225,-3.2114437655555563,5.250926594442539,-1.1761860399511108,258.22948321044305,1.8868,7.147820010322588,7.147820010322588,0.0,1.0,-1
1991,VBrO,mp-27841,59,-6.237784745,4.026289121319713,-1.8096187187500008,121.12478057762793,1.5566,3.472918,9.049954,2.0,1.0,-1
1992,CrBrO,mp-27842,59,-6.157358258333333,4.183165068558561,-1.649811765416666,117.41965409231787,1.6881000000000002,3.3526839999999996,8.86927,2.0,1.0,-1
1993,TiIN,mp-27848,59,-7.0695228000000006,4.637499402754486,-1.2788638602377784,135.19075647538224,0.014800000000000146,3.541317,9.600037,2.0,1.0,-1
1994,TiBrN,mp-27849,59,-7.335914168333333,3.93958903110144,-1.5076172535711112,119.51876592410623,0.5551000000000001,3.377704,8.932372,2.0,1.0,-1
1995,TiNCl,mp-27850,59,-7.561571966666666,2.960848314364915,-1.860966906324445,109.16789407222551,0.5605000000000002,3.27536,8.402486999999999,2.0,1.0,-1
1996,TaCl4F,mp-27854,82,-5.2610777725,3.0548814921974063,-2.2121224940383337,743.0769174349033,3.0973,10.237354781170477,10.237354781170477,0.0,1.0,1
1997,PdBr2,mp-27857,15,-3.1566905166666666,4.066309295639091,-0.3387788866666668,217.43648231426724,0.9432,6.645433005340209,7.393539729746232,1.0,1.0,-1
1998,SbI5F6,mp-27859,2,-3.267127241111111,3.9475208084933184,-1.5777634812894443,1098.250270457475,0.9324,8.691077,15.800041992558914,0.0,1.0,-1
1999,AlClO,mp-27863,59,-5.86554777,2.6422782127521254,-2.7838503448366674,98.58357728117396,5.5973,3.1699,8.495486,2.0,1.0,1
2000,MoS2Cl3,mp-27866,14,-4.785297279166667,2.7999042577684237,-1.193101330171667,632.0441304343527,1.4427,6.2529959999999996,14.3665687857959,1.0,1.0,-1
2001,RhBr3,mp-27871,12,-3.5140763875,4.757663080540303,-0.4453045149999997,239.16352798408542,1.3144,6.438652157616918,6.995091326003188,2.0,1.0,-1
2002,B2H3,mp-27876,61,-4.751637403625,0.8233614718583354,-0.1360386984636662,1590.5664119462933,3.074,10.681638000000001,13.915479999999999,0.0,1.0,1
2003,Nb3Cl7,mp-27880,64,-5.5721777325,3.40718211953668,-1.6640905367820005,1027.1498623564248,0.9757000000000002,9.533830521097226,11.305207000000001,2.0,1.0,-1
2004,NO2,mp-2789,204,-6.3057501688888875,1.6620160544707734,-0.8244824605155551,275.78769707898647,2.8607,7.102298585147487,7.102298585147487,0.0,1.0,-1
2005,BF3,mp-27896,2,-5.8691233221875,1.823503152759296,-3.1338627791216664,493.97166033298566,8.1393,4.814145,14.311271209310371,0.0,1.0,1
2006,BiSe,mp-27902,164,-4.00829895,7.561528230492271,-0.3153260561718749,379.3965466856185,0.0,4.25832197445731,24.159378,2.0,1.0,-1
2007,Sb6Pb4S13,mp-27907,1,-4.392840286304348,5.485576388611864,-0.7070375041576082,1196.4342025836454,0.8506,3.9584080000000004,17.991037483305874,2.0,1.0,-1
2008,Bi2Te2S,mp-27910,166,-3.926623578,6.893318035433272,-0.4186915086250004,169.88262918593634,0.6276000000000002,10.931241113438217,10.931241246633293,2.0,1.0,-1
2009,Ti2PCl13,mp-27921,62,-4.046704231328125,1.9151091753782823,-1.7026834443042558,4075.913336965478,2.3096,11.139691000000001,30.165919,0.0,1.0,-1
2010,GeI2,mp-27922,164,-2.898129468888889,4.112266268035377,-0.3411117738888893,395.4616623444989,2.0732,4.307384027838705,24.611981,2.0,1.0,-1
2011,AsClF8,mp-27926,15,-3.6676255110000002,2.700476729219119,-1.939888465778,322.65566763041414,3.3985,5.75131500637489,10.491501140447014,1.0,1.0,1
2012,Ge2S3I2,mp-27928,147,-3.8515154564285714,2.952718099533369,-0.6067939506250001,1114.1440580589715,2.2528,10.012058999999999,11.335577554360649,0.0,1.0,-1
2013,AuSe,mp-2793,12,-3.4857636225,8.223421519004054,-0.10086711367187506,111.43460086012756,0.31699999999999995,5.107030380008033,6.44855306023863,2.0,1.0,-1
2014,Li9Ge4,mp-27932,63,-3.0887121084615385,2.8622827887481663,-0.3446800146153848,409.61602288019685,0.0,4.473940934864139,23.740068,2.0,1.0,-1
2015,CdBr2,mp-27934,186,-2.281459426666667,4.412564447762295,-0.8825451466666667,204.88325531427398,2.9397,4.073837827745479,14.255037,2.0,1.0,-1
2016,AlICl6,mp-27935,4,-2.9095948,2.196263187708041,-1.31050801182,554.3600436045623,2.2907,6.354327,11.862518,1.0,1.0,-1
2017,Pb2ClO2,mp-27942,139,-4.857114702,7.766335481224687,-1.4230194911519995,103.02590457827546,0.0,7.007335290714867,7.007335290714867,2.0,1.0,-1
2018,Sn(SbTe2)2,mp-27947,166,-3.729035198571428,6.146180766792537,-0.18035261928571394,235.76205462686968,0.28420000000000023,14.383216942011304,14.383217513498574,2.0,1.0,-1
2019,Ge(BiTe2)2,mp-27948,166,-3.7539023914285714,7.2279785266689025,-0.18585950642857127,229.96760822751057,0.5095000000000001,14.010444031392007,14.010444363263431,2.0,1.0,-1
2020,SiP,mp-2798,36,-5.554520330833332,2.076295941349461,-0.13522039011904732,566.7990377045696,1.8187,10.434132842245443,15.611119,2.0,1.0,-1
2021,BrF5,mp-27987,36,-2.809547825,2.876906453223976,-1.352934956825,201.8985823020005,3.4572,5.039690172317044,7.995674,0.0,1.0,1
2022,IF7,mp-27988,41,-3.152993069375,2.9229647104381966,-1.71951012541625,295.2912593411358,1.5547000000000002,5.583702940371559,9.787974,0.0,1.0,-1
2023,B2H5,mp-27990,14,-4.3831712721428575,0.6584842438154304,-0.16067600806190438,537.8752168822268,6.3475,6.0015339999999995,10.360178999999999,0.0,1.0,1
2024,HgBrO3,mp-27994,15,-3.3409594945000003,5.519750242286338,-0.4054388322500003,395.28899477700963,3.2228000000000003,9.072439002886544,9.882051832078195,0.0,1.0,1
2025,As2(SO4)3,mp-28005,14,-5.955971056911764,2.7934667633025305,-1.798018584227941,1041.5267472478477,4.599,5.472168,19.852228980933727,1.0,1.0,1
2026,MnI2,mp-28013,164,-4.523713016666666,4.463106048543079,-0.4538024498850574,114.8721147808764,1.1837,4.164357291198966,7.648706,2.0,1.0,-1
2027,AsF3,mp-28027,33,-4.728915195625,3.0633850037757813,-2.4987229940175,286.02740512477493,5.4005,5.379914,7.469264999999999,0.0,1.0,1
2028,Mo2SBr2,mp-28037,63,-6.516908958666666,5.079215140191505,-0.8292831572916659,752.758248079553,1.1341,9.88353371078634,12.065928999999999,2.0,1.0,-1
2029,NbTeBr3,mp-28038,13,-4.401460205,4.492249698437393,-0.7703830869999997,680.4702769956808,0.6276000000000002,7.039281,12.81756574526973,1.0,1.0,-1
2030,Hf(BH4)4,mp-28040,215,-4.510966297142857,1.82046839975172,-0.2961785583136506,216.96479290493224,5.9277,6.00892,6.00892,0.0,1.0,1
2031,Pb9(Br5O2)2,mp-28041,85,-4.062157397826087,6.6376945011478385,-1.1592986628260875,1364.8356071093895,2.9018,8.648296,12.562466,2.0,1.0,-1
2032,Tl3AgI5,mp-28043,190,-2.4372804563888892,6.5848037935919965,-0.48866067657407397,1367.346966828099,1.0507,10.809415258618202,13.512748,1.0,1.0,-1
2033,AlP2I9,mp-28046,61,-2.6512709029166666,3.5022475308334533,-0.2939158122619047,4669.546937631664,1.6561,11.48292,21.606120999999998,0.0,1.0,-1
2034,SbTeI,mp-28051,12,-3.160608115,5.329753169156712,-0.2285031866666666,234.45808163285042,0.8925999999999998,7.705226253408072,9.757175471450024,1.0,1.0,-1
2035,B9H11C2,mp-28052,15,-5.3689199633522735,1.0118149894408366,-0.17777493550318207,1738.4065449492664,3.6606,11.262145171043615,22.63239294080812,0.0,1.0,1
2036,Sb2F7,mp-28062,11,-4.726143708611111,4.182527209364789,-2.703715551203333,597.9232910809567,3.8313,4.91639,11.06527,1.0,1.0,1
2037,SbS8Cl3,mp-28064,2,-3.854049965,1.9750317780809736,-0.8811772062316662,814.9357409123804,2.8797,8.583079,11.533313931079912,0.0,1.0,-1
2038,PbBr2,mp-28077,62,-3.2390330025,6.128998834593923,-0.9101996191666668,397.73616422631324,3.0529,4.7539419999999994,10.157509,2.0,1.0,1
2039,KAs2F7,mp-28085,14,-4.68852296225,3.066337436152921,-2.651274292883,697.3503578119223,4.7859,7.467767,11.119054002878348,2.0,1.0,1
2040,P4Se3I2,mp-28089,122,-3.991812890555555,2.9413086120702636,-0.08193476736855132,1387.8730271183747,2.0711,12.388911606063544,12.388911606063544,0.0,1.0,-1
2041,Sb2S3,mp-2809,62,-4.3827542459999975,4.27822535984747,-0.6473598298749991,527.4243234630642,1.3091,3.87034,12.133897,1.0,1.0,-1
2042,Si2H2S3,mp-28090,114,-4.727693347142859,1.6215631455543449,-0.7635403523735721,632.37042262086,3.3657,8.247968,9.295603999999999,0.0,1.0,1
2043,Au2Se2O7,mp-28095,32,-4.809439351818182,6.100338606602298,-0.8767807775852281,361.4052159914103,1.3063000000000002,4.297599,11.587503,2.0,1.0,-1
2044,SCl,mp-28096,43,-3.15951406,1.5904792723260246,-0.7960936381924997,563.9370655097308,2.8905000000000003,9.733315988554619,14.908712674983175,0.0,1.0,-1
2045,SBr,mp-28099,41,-2.93173446375,2.434063666298411,-0.3767762603124996,305.54484062594094,2.3074,4.753653857819372,14.258095,0.0,1.0,-1
2046,SbAsO3,mp-28109,14,-6.0139514374999985,4.5369958240792165,-1.7089282272499986,358.21092411107367,3.5748,4.658626,13.652463000000001,2.0,1.0,1
2047,In5Cl9,mp-28112,167,-3.1330683175000003,3.5672557416473967,-1.3442770717385717,831.5292224117312,2.9919,9.477322642810996,9.477322833154359,0.0,1.0,-1
2048,TiCl2,mp-28116,164,-5.26013993,2.682312796069225,-1.7924086066177776,73.52878711472684,0.0,3.527367743226669,6.823784,2.0,1.0,-1
2049,VCl3,mp-28117,148,-4.89582825625,2.4816248071365563,-1.6844635061949995,210.5101663189008,0.0,7.433733402458887,7.433733796409579,2.0,1.0,-1
2050,AlSbI6,mp-28118,12,-2.639826258125,3.5227783216224737,-0.512494663125,858.0557609099919,2.3121,8.078589323898077,10.984077057012756,0.0,1.0,-1
2051,SCl2,mp-28128,19,-2.713757739583333,1.6126404751647485,-0.7201937994650001,848.2355285515226,2.0979,5.181333,16.824014000000002,0.0,1.0,-1
2052,Hg2IO,mp-28136,15,-2.04753863625,8.114685396053906,-0.4532789328125,445.3518417762768,0.9849,7.038167927096724,9.659920123664481,2.0,1.0,-1
2053,Co(ClO4)2,mp-28137,148,-4.494772037727271,2.6305908536089886,-0.7031953560472725,651.023453568679,3.1799,8.289112337622527,9.830832338003683,2.0,1.0,1
2054,Ni(ClO4)2,mp-28138,148,-4.269823597727273,2.7892448926199105,-0.6253542901381816,613.4217870606876,4.0945,4.8599053858701815,16.835111752380797,2.0,1.0,1
2055,MoS2,mp-2815,194,-7.239072113333332,4.053379365580824,-1.3085311920833338,131.15105417850478,1.4648999999999996,3.1903153919636225,14.879004,2.0,1.0,-1
2056,Ca(AuF6)2,mp-28153,115,-3.5279458066666667,4.322362807980768,-1.8212815022853333,254.32005304096074,1.6254,5.73252,7.7390820000000025,2.0,1.0,-1
2057,As(BrF2)3,mp-28159,2,-3.497709281,3.193085940019259,-1.688389398214,445.8050563840544,1.6356,5.787242,9.95886916723169,0.0,1.0,-1
2058,Pd(SCl3)2,mp-28174,2,-3.0186202255555554,2.376390823844164,-0.8354016250900003,267.81431765845934,1.6204,4.755114,8.414183290794776,0.0,1.0,-1
2059,Pd(SeCl3)2,mp-28175,15,-2.9640680877777776,2.696789123318644,-0.7757557960274997,587.493800819859,1.7183,7.7090467411960875,9.860330954291747,0.0,1.0,-1
2060,Te2PdCl10,mp-28176,14,-2.8765179994230765,2.6580990226476158,-1.0299800426999999,1789.5421388193204,1.5543,7.781478999999999,21.473945178363593,0.0,1.0,-1
2061,NaNbCl6,mp-28178,14,-4.1939836453125,2.3250253412793094,-1.8266007556741664,938.7882756008397,2.2385,6.65665,19.9267022987267,2.0,1.0,-1
2062,NaTaCl6,mp-28179,14,-4.50535971875,2.9382322433997285,-1.9184177553616681,941.890123904549,2.9019999999999997,6.69464,19.80757924356356,2.0,1.0,-1
2063,Sb4F15,mp-28180,29,-4.682623968355263,4.088260677865123,-2.6918736016631577,2508.573515748664,3.6879,11.182028,19.657543,1.0,1.0,1
2064,TaClF8,mp-28185,54,-5.0755462845,3.6694395219980787,-2.627943316778,666.8297295565961,3.484,5.995907,11.004802,1.0,1.0,1
2065,FeSeCl7,mp-28189,1,-3.29717971,2.2593100799389814,-0.9924162439070838,562.9564664159574,1.3313,6.61185,10.361000801944424,0.0,1.0,-1
2066,AuSCl5,mp-28192,14,-2.6301939382142865,3.0528577168858324,-0.7707473252750004,883.9865961893083,1.7882000000000002,8.194637,13.822513515476265,0.0,1.0,-1
2067,BiClF8,mp-28194,2,-3.423392818,3.836664511776312,-1.7725641822779998,343.14803058453657,2.1059,5.399787,10.779047535428953,1.0,1.0,-1
2068,IrS3Cl11,mp-28211,14,-3.071044048833333,2.4756630780555016,-0.8677266645156668,1820.120694243924,1.8439,8.543774,15.953614171600522,0.0,1.0,-1
2069,TiBr3,mp-28214,2,-4.4259018175,3.824505501861757,-1.2243339083333336,249.7243965272364,0.05610000000000004,6.488226050034015,7.780594731885346,2.0,1.0,-1
2070,TlCdCl3,mp-28218,62,-2.8413087010000004,4.988942100893421,-1.4320895669560003,563.3760196855177,3.3343,4.045719999999998,15.168951000000002,1.0,1.0,1
2071,TlCdBr3,mp-28219,62,-2.5217162675,5.757789325004091,-0.8826517955000004,641.9828165271489,2.9081,4.219797,15.781386999999999,1.0,1.0,-1
2072,Bi4Te3,mp-28229,166,-3.7424029314285714,8.069002640435489,-0.17239721285714285,250.80358977302743,0.25570000000000004,14.474151029749686,14.47415118452799,2.0,1.0,-1
2073,TlSbS2,mp-28230,2,-4.02438958,5.56997913901362,-0.6652310915625006,465.3978373180525,1.5268999999999997,6.320538,11.96519603487118,2.0,1.0,-1
2074,MnCl2,mp-28233,166,-5.371988129999999,2.673234318656546,-1.4821853220583907,78.17083282339699,1.7973,6.877680395258638,6.877680908689281,2.0,1.0,-1
2075,Tl6SCl4,mp-28242,128,-3.1591733990909088,6.537998556456821,-1.0993268851059093,711.2415998473401,1.7993999999999994,8.708905999999999,9.377562,0.0,1.0,-1
2076,CdI2,mp-28248,186,-1.90947056,4.982262459980731,-0.58583223,244.11500687591632,2.4364,4.334895083083903,15.00053,2.0,1.0,-1
2077,LiBiO2,mp-28253,72,-5.420323584375,6.939531221755344,-1.8477515558333328,237.29624629898342,2.5090000000000003,9.980189374837083,9.980189374837083,2.0,1.0,-1
2078,V2Se9,mp-28256,15,-4.921362177727274,4.391785606548755,-0.4094516832812506,614.4317163384071,0.7658,8.525515150111692,8.637937863553603,1.0,1.0,-1
2079,SOF2,mp-28257,14,-4.778024239375,1.9327255504650431,-2.1380853385637497,591.5293883771137,5.2926,5.437658,15.019200142406586,0.0,1.0,1
2080,Sn5BF13,mp-28271,14,-5.1203802903947375,4.099409360990342,-2.7417275122177203,1379.4023535175436,4.1516,7.771872,14.534798971255881,2.0,1.0,1
2081,SiH3F,mp-28289,14,-4.2492829164999995,1.092025319258814,-0.9362680889100006,304.7762004948863,6.0106,4.865885,8.650176743792754,0.0,1.0,1
2082,Ge(SF6)2,mp-28291,58,-4.273649299666667,2.6723963545353007,-2.365942020035334,453.2883123496288,4.9824,6.128832,9.666468,0.0,1.0,1
2083,SnPCl9,mp-28293,2,-3.1383972472727275,2.3156404605635648,-1.2558957466283118,672.2939691602587,2.4344,7.41626,10.001985084503376,0.0,1.0,-1
2084,Sb11F43,mp-28294,14,-4.658658033888889,4.026649529690894,-2.6863863784475934,1778.4542601257058,3.5093,9.289073,16.957828278036814,0.0,1.0,1
2085,OsBr4,mp-28301,61,-3.63630535775,5.179525439724613,-0.08129723574999942,1307.639799517628,0.0,6.433247,15.464289,1.0,1.0,-1
2086,MnBr2,mp-28306,164,-4.958327706666666,3.8257757157706376,-0.8131411898850575,93.20833828558914,1.6107,3.8979627664442873,7.083514999999999,2.0,1.0,-1
2087,Ta2NiS5,mp-28308,63,-7.198033665625,5.602508034190127,-1.340453506328125,344.35672421505615,0.0,6.8189980946192525,15.211997,2.0,1.0,-1
2088,PtI2,mp-28319,14,-3.202837370833333,6.6672644977406375,-0.1631930574999997,447.20245542592636,1.2521,7.060178,9.133865,2.0,1.0,-1
2089,TlI3,mp-28329,62,-2.0763309175,5.550622733179394,-0.3429082112500001,700.1563546276998,1.8526,6.6647229999999995,10.605474000000001,0.0,1.0,-1
2090,TeAuCl7,mp-28330,2,-2.613408938333333,3.0604826901594624,-0.9251712375355556,621.5053012990312,1.5772,7.976201,9.530040298555036,0.0,1.0,-1
2091,Zr6CI14,mp-28344,64,-4.893167757142857,4.8682558200390105,-0.9955886576190476,1593.6089215876855,0.7963999999999998,11.019131468869997,13.142053,2.0,1.0,-1
2092,NbHg3F6,mp-28357,162,-4.3144607760000016,7.2374005851250525,-2.360896082214,185.53937924810555,0.0,5.279960440836655,7.685005,0.0,1.0,-1
2093,NbAlCl8,mp-28358,63,-4.2102839345,1.9835960016973384,-1.822515066108,675.5884808203566,2.0189,8.741689,9.929485667094443,0.0,1.0,-1
2094,Al2CdCl8,mp-28361,7,-3.5162495413636363,2.2117831863254502,-1.8394450655527272,675.6895447124816,3.858,7.107631,13.230190183010675,2.0,1.0,1
2095,TlAuCl4,mp-28368,15,-2.760082185,4.841175613022179,-0.9849257805066666,372.61259456726066,1.7753,6.929083016333113,10.220520622149,0.0,1.0,-1
2096,GeH3Cl,mp-28369,36,-3.505762826,1.9276906349691385,-0.3865450628239998,191.43509567271846,4.7582,4.814917391823042,8.583061,0.0,1.0,1
2097,AuSeCl7,mp-28372,14,-2.5124345602777782,2.9494575468164377,-0.785017909740417,1180.263793217095,1.743,9.076772,13.049307265037672,0.0,1.0,-1
2098,Ta2AgF12,mp-28375,2,-6.090522784,4.669536476484219,-3.1842085927297776,248.12580479775949,0.7169999999999996,5.396864,9.375929874721814,2.0,1.0,-1
2099,GaBr2,mp-28384,52,-2.8784187179166665,3.4388226506831163,-0.7777691904166666,886.6876398410386,3.1066000000000003,7.857659,10.737248,1.0,1.0,1
2100,PAuCl8,mp-28387,74,-2.865831734,2.6580630675863977,-0.9940342124651428,1278.3331848870544,1.2867,12.014455435672724,12.014455435672724,0.0,1.0,-1
2101,SiCl4,mp-28391,14,-3.8147144245,1.5483838528167433,-1.726570839108,728.8152367501175,5.7869,6.85595,10.486663323656623,0.0,1.0,1
2102,P3Se4I,mp-28393,14,-4.025713429375,3.072719731693233,-0.05727391563616058,1157.9239138581174,1.6465,7.043551,15.069138145178243,0.0,1.0,-1
2103,S(ClO)2,mp-28405,43,-4.286642458999999,1.7244144463995619,-1.392237907429,259.940556841354,3.7891,6.189147388297437,9.870939452445445,0.0,1.0,1
2104,SCl2O,mp-28406,14,-3.789422045625,1.6541210666336237,-1.2328327233487495,477.7280235504931,3.6401,6.1845550000000005,9.45008848653863,0.0,1.0,1
2105,SBr2O,mp-28407,29,-3.5282959259375,2.5679870073210282,-0.7801688220312504,1075.3332943938851,2.7319,4.516254,19.380823,0.0,1.0,-1
2106,Sb(IF3)2,mp-28431,2,-3.820257372222224,3.9510776211735807,-2.075776564126667,411.4990993924328,0.5843,6.204999,8.347272440469043,0.0,1.0,-1
2107,Tl3Cd2I7,mp-28432,55,-2.26805400125,5.63408405462417,-0.6348184375000002,1017.5900323810213,1.946,4.5905879999999994,15.452172000000001,1.0,1.0,-1
2108,RuClF8,mp-28437,54,-3.898738058,2.9875647308527955,-1.709473887778,1282.8709504429746,1.1268000000000002,5.850542,20.055004999999998,1.0,1.0,-1
2109,Br2O,mp-28460,33,-2.5776539958333333,3.641435812065679,-0.07114781291666716,320.68125977128426,1.4541000000000002,4.347932,10.40958,0.0,1.0,-1