,pretty_formula,task_id,spacegroup.number,final_energy_per_atom,density,formation_energy_per_atom,volume,band_gap,min_abc,max_abc,Dimension,Dim,is_uv
3696,Nb4IrSe10,mp-675326,2,-6.314930632666668,6.1495210034177195,-0.7014129422291661,365.46654245241035,0.0,6.080166999999999,9.123920850862143,2.0,1.0,-1
3697,Nb3IrS8,mp-675367,15,-6.8536371462500005,4.8286021891440445,-1.2764484400000005,500.3391426296697,0.0,6.72541297365515,13.952122008626535,2.0,1.0,-1
3698,Nb15IrS32,mp-675380,1,-7.032171073125,4.3909694761855445,-1.3760527031250014,987.7431145080644,0.0,8.995527000000003,13.642059574170098,2.0,1.0,-1
3699,Tl3In7Se10,mp-675519,2,-3.547706955,6.246146566107077,-0.4824139636718755,1173.1839439512069,0.9703,6.766217,16.65851091926208,1.0,1.0,-1
3700,Bi2PbSe4,mp-675543,166,-4.076338825714286,7.47457739895918,-0.4368585970535714,209.05109502504283,0.4700000000000002,13.617498009473875,13.617498640488751,2.0,1.0,-1
3701,MgPS3,mp-675651,12,-4.64223728,2.2364651047212414,-1.1557301775892852,224.9336230061336,3.0294,6.107434666459072,7.2509859901459635,2.0,1.0,1
3702,KNbCl6,mp-675801,4,-4.222481644375,2.0465141144039203,-1.880630413445,559.4151276594331,2.1642,7.33926,10.349246,2.0,1.0,-1
3703,LiBH4,mp-675926,2,-3.9809542341666666,0.8591874231450204,-0.38974402033,84.20231377463467,5.6481,4.072911,5.0666901905511255,1.0,1.0,1
3704,Tl2SeO4,mp-675953,15,-4.830235372857143,6.162803929602608,-1.2299668996205355,297.31907701555195,2.4715,6.389169757198267,8.147336651700236,1.0,1.0,-1
3705,Tl9BiSe6,mp-675989,87,-3.25984985875,8.555398442640444,-0.3773261090039064,489.53829824776255,0.8311000000000002,8.995402534459812,8.995402534459812,2.0,1.0,-1
3706,NiPS3,mp-676040,12,-4.909807912,3.1770513301547467,-0.5873294835892857,194.28794119527507,0.0,5.821405871013117,6.895947376475839,2.0,1.0,-1
3707,Ag3SI,mp-676121,1,-2.914271885,5.912215314641317,-0.2153377866250004,271.07710159969986,0.3741999999999999,4.3196900000000005,13.2786736759478,2.0,1.0,-1
3708,TlSnF3,mp-676130,9,-4.5013476545,6.183782812976685,-2.3747726072140005,816.5252086565463,0.02239999999999997,8.661139237229303,10.22689166778841,1.0,1.0,-1
3709,FeCl3,mp-676241,1,-4.18373714375,2.200413099857065,-1.125848191195001,244.8141022031569,0.6658,3.7550220000000003,8.877341178531891,1.0,1.0,-1
3710,Bi2Te4Pb,mp-676250,166,-3.7216617957142857,7.526713326881914,-0.2836733085714285,250.5267557042342,0.5150000000000006,14.432779714230554,14.432780367569132,2.0,1.0,-1
3711,Tl9SbSe6,mp-676274,87,-3.2523451775,8.270047811511875,-0.35488599462890624,488.91643736435685,0.7639000000000005,9.03100136503677,9.03100136503677,2.0,1.0,-1
3712,Y2GeI2,mp-676315,166,-5.357184286,4.9546372135700665,-1.2363852236666666,169.00218045740013,0.19609999999999994,11.015589046516805,11.01558956807964,2.0,1.0,-1
3713,TlNO2,mp-676400,1,-5.5657228825,5.5149241856908455,-0.8643588562200001,75.3918585713087,1.6843,3.8406569999999998,4.6545151733857315,0.0,1.0,-1
3714,In3SbTe2,mp-676518,59,-3.250614046666666,5.086961869120331,-0.13883833166666668,470.98294070732896,0.0,4.2355599999999995,24.251585000000002,2.0,1.0,-1
3715,ReSeCl,mp-676712,20,-6.491973707222222,6.283482226466428,-0.7605438274234717,953.3400166525496,1.5372,9.395234616985356,11.023337,2.0,1.0,-1
3716,SbH7F11,mp-676763,1,-4.238233093157895,2.627386139421471,-2.0049062857068414,1067.4616731118406,0.35850000000000004,6.158675,26.52694679628928,1.0,1.0,-1
3717,OsClF8,mp-676815,13,-4.1070633635,3.877258470478997,-1.722504713778,323.494638634684,0.4806,5.711727,10.698376943365286,0.0,1.0,-1
3718,CuAs2Pb6Cl7O6,mp-677164,146,-4.730416270454546,5.881409635715456,-1.5511310181963638,508.42006745786483,2.2101,8.208467164418092,8.208467323765259,2.0,1.0,-1
3719,Ca2Bi10O17,mp-677291,1,-5.795126336896553,7.837150752826678,-1.8265795841810348,517.4014344579922,1.5488,7.764931,9.787495587451062,2.0,1.0,-1
3720,Ta4AgS8,mp-677597,2,-7.381140703461537,6.852304598363844,-1.3774802835897453,527.40356491838,0.0,5.807444,13.631800428478035,2.0,1.0,-1
3721,TlAgAs2PbS5,mp-677611,2,-4.152065917,5.429670583627168,-0.5930616972291674,507.43996382583015,1.4741999999999995,8.099882000000001,9.281613145826645,2.0,1.0,-1
3722,Ba17Al3O7,mp-679951,138,-4.183919119814815,3.972880639934951,-1.4587750501388894,4225.660825101754,0.04329999999999989,15.109082379394698,18.510514137936546,2.0,1.0,-1
3723,Nb3Se10Br3,mp-679967,14,-5.0306997921875,4.4387266492677115,-0.6448366974023436,3914.702535075314,1.2001,13.962971,19.666438078169442,2.0,1.0,-1
3724,PCN2Cl3,mp-679969,14,-5.543893168125,1.7728655756994225,-0.6429554728552033,2657.9161070519144,3.6218,9.939511999999999,18.40951069512715,0.0,1.0,1
3725,TiSi4(NCl7)2,mp-679971,19,-4.686220695238095,1.8767910936270995,-1.6835727835111112,2422.7436578606216,2.522,12.564494,14.972323000000001,0.0,1.0,-1
3726,NbP2S2Cl5,mp-679987,14,-4.6570384615,2.1715026421434125,-1.2427273234692862,2424.0791511631146,1.6878,6.561103999999999,27.676110194370903,0.0,1.0,-1
3727,Re3(SeCl)7,mp-679999,57,-4.862080055441176,4.795026417520806,-0.7102024827486024,1883.220312832992,1.5043,10.491716,14.645551999999999,0.0,1.0,-1
3728,P6N6Cl10O,mp-680008,14,-5.238908346847826,1.7982113158306336,-1.0224421063938511,2365.527167958983,0.0,9.528564,21.944391056458553,0.0,1.0,-1
3729,Re3(SeBr)7,mp-680015,159,-4.639578423235294,5.332375304396608,-0.32996385390624994,2081.03217308818,1.3152,9.87311886380717,24.651279000000002,0.0,1.0,-1
3730,InTeI7,mp-680058,33,-2.1304489551388888,4.255836797599788,-0.2901075145833332,3529.558974882072,1.7338,7.493689,30.520144000000002,0.0,1.0,-1
3731,Re3(SCl)7,mp-680059,159,-5.150814712058824,3.6617930627365394,-1.0083754496879411,1870.5873341016336,1.6778,9.740974050572664,22.763686,0.0,1.0,-1
3732,Bi34Ir3Br37,mp-680086,1,-3.4207600359459467,6.714292633992264,-0.4566689578378379,2631.0341092755184,0.0040999999999997705,13.098924,17.39003164987514,2.0,1.0,-1
3733,Bi9Rh2Br3,mp-680173,11,-4.204507430357143,8.901277403197009,-0.3009571339285716,2603.8887926566417,0.5703000000000005,9.437831,20.243340425431594,1.0,1.0,-1
3734,In5Br7,mp-680178,92,-2.8335980085416668,4.365773587512112,-0.7321893060416667,6897.599539000071,2.0373,13.431636,38.233156,0.0,1.0,-1
3735,Bi9Ir2I3,mp-680182,62,-4.253079470714286,9.103738281701874,-0.16313607964285734,3861.040900112241,0.5545,9.91315777,27.636336,1.0,1.0,-1
3736,Te5As2Br4O5F26,mp-680183,2,-4.147083130238095,3.60236219587672,-2.0102955482664284,3100.24879986167,2.1236,9.989955,19.255023776003426,0.0,1.0,-1
3737,TaSe2,mp-680184,176,-7.0924081449999985,7.81446005866545,-0.8092079498958327,3744.4140918809667,0.0,12.572449800000019,27.35353212,2.0,1.0,-1
3738,Y21B7(C7I9)2,mp-680189,2,-6.561545465,4.70540759128399,-0.9088989209027782,3102.084190948241,0.0,10.885283,18.54094783782369,2.0,1.0,-1
3739,Sb2Cl5F4,mp-680240,15,-3.6970945665909087,2.9180775072310543,-1.8598711212327272,2261.5445736765687,2.3191,11.408422465267712,18.83881749218209,1.0,1.0,-1
3740,K3P6S6N7,mp-680247,167,-5.959252056022727,1.7210509253134632,-0.8539722140153901,2290.817590906648,3.5462,21.47244512831084,21.472445139962172,2.0,1.0,1
3741,Tl2Cl3,mp-680294,62,-2.9594893321875,5.444581133498327,-1.2625175541435,5027.449712848123,1.7744999999999995,13.12115474,25.21376802,1.0,1.0,-1
3742,Mo3N2Cl11,mp-680300,29,-5.06054528953125,2.503253276832271,-1.170905651445,1872.8200088967728,0.1591,10.358738,13.825044,1.0,1.0,-1
3743,Re(Se2Cl3)2,mp-680308,56,-3.794773160227273,3.59796569823066,-0.7082932551304547,1319.5180893714667,0.14479999999999993,10.817216,11.252207,0.0,1.0,-1
3744,Mo2NCl8,mp-680309,13,-4.8009384425,2.5005632386344616,-1.1941597096327272,1300.2696805422204,0.0,6.863675,18.63876895274055,1.0,1.0,-1
3745,Ge4Se9,mp-680333,29,-4.048565778653846,4.137943864170446,-0.2058492618149035,1607.1090068431515,1.2215,7.16675,18.126352,2.0,1.0,-1
3746,Ta21Te13,mp-680343,183,-8.777888316029411,10.215163521493912,-0.2521164830882365,3549.387607366616,0.0,10.700234046826145,19.57124417293153,2.0,1.0,-1
3747,ZrN6O17,mp-680356,88,-6.559531525833332,2.2721014232178294,-1.2079129123137495,2614.963336069049,1.568,16.63674485479996,16.63674485479996,0.0,1.0,-1
3748,ZnCuTeCl2O3,mp-680388,56,-4.3419120028125,4.09292145963011,-1.3735433065962503,1218.6203437594957,0.0005999999999999339,7.519242999999999,15.797162,2.0,1.0,-1
3749,W6CCl16,mp-680486,62,-5.832515272934782,4.892604836382163,-1.1787259186808692,2283.873565481789,0.40200000000000014,10.101455,17.158146,2.0,1.0,-1
3750,Nb3TlVCl11,mp-680696,62,-5.06875390140625,3.7829557016475888,-1.5973892192725003,1622.416917853503,0.0,6.889297,17.220342000000002,2.0,1.0,-1
3751,As2Pb14Cl4O17,mp-680722,15,-5.368467810135135,7.648357758354693,-1.6255755759267565,1504.3350346165244,1.9593000000000005,11.503581247347498,13.190170832948676,2.0,1.0,-1
3752,In4Br7,mp-680760,15,-2.8100343568181816,4.084454382529649,-0.7677415659090908,1656.4514471978991,2.2927,7.810433657046195,31.987979093344478,2.0,1.0,-1
3753,Ta4Te9I4O,mp-680836,15,-5.336169691388889,6.401642982520323,-0.5549177570138895,1242.910333914872,0.3817000000000004,11.726688151015699,20.67472909605649,0.0,1.0,-1
3754,MoSe2Cl4O,mp-683684,14,-4.0035351215625,3.0618181860183595,-1.0575932014346874,3572.237935869736,1.0025,7.97391182,28.354587776377244,0.0,1.0,-1
3755,TeS7Br2,mp-683875,62,-3.626577474,2.1145138902732583,-0.5537691661875002,1607.8750055167236,2.2268,9.760246,13.711625,0.0,1.0,-1
3756,Cu2P8Se3Br2,mp-683899,57,-4.527195065333333,3.350399108563484,-0.17610921570684562,1529.6354201546435,1.2898999999999998,8.954784,13.948535000000001,2.0,1.0,-1
3757,AlP3(NCl3)3,mp-683949,31,-4.65712639140625,1.953896050713124,-1.2116570934183928,1635.131337797508,3.6551,11.02806,12.320557,0.0,1.0,1
3758,GaP3(NCl3)3,mp-683966,14,-4.508743662265625,2.0133773257556773,-1.1081168847465177,3455.658394968007,3.9035,11.234801,24.95346541004037,0.0,1.0,1
3759,RuOF4,mp-683982,19,-5.012742468125,3.7399478767492162,-1.8123665249600005,685.7607338603946,0.3321000000000001,5.621753,12.833105999999999,1.0,1.0,-1
3760,Al(SeCl)4,mp-683984,29,-3.5505123825,2.787055489007619,-1.0233317549905554,2309.9731655976348,1.105,10.90011,15.256675,0.0,1.0,-1
3761,Sn4Sb6S13,mp-684021,12,-4.36783148847826,4.484355861288815,-0.6303896132880434,1201.4216897239335,0.6013999999999999,16.986633931224986,24.941990315948285,1.0,1.0,-1
3762,Tl7Bi3I16,mp-684055,63,-2.602077952307692,5.901621459618808,-0.5795442742307696,6901.60444572394,2.2654,14.666337060151045,36.887444,0.0,1.0,-1
3763,Sb(PO3)4,mp-684426,14,-6.881832369264706,3.1652358330239334,-2.3682952921638654,918.391408861475,0.0,8.783609,12.628895468451464,2.0,1.0,-1
3764,Li2Sb(PO3)5,mp-684477,11,-6.826292254347828,2.578956944157638,-2.535063632098861,683.1591216771897,3.9689,5.48299,14.084425,2.0,1.0,1
3765,Sb(PO3)5,mp-684537,14,-6.823696085,2.716083209423752,-2.305581200314625,1263.3889478908495,0.0008999999999999008,9.428016,14.049887,2.0,1.0,-1
3766,HCl,mp-684609,44,-3.07577979,1.1408482645106668,-0.8289859709399998,53.06999813943488,5.1812000000000005,4.182735563257377,4.182735563257377,0.0,1.0,1
3767,Zr5I18,mp-684985,2,-3.9559345901449268,4.16824453784325,-0.9050332762318838,3275.1499922649714,0.0,7.951002875106457,70.45823016470185,0.0,1.0,-1
3768,In2Br3,mp-685014,19,-2.834400182875,4.1866626229200365,-0.751570766875,2978.4895895413533,2.1268,13.236989999999999,16.784813,0.0,1.0,-1
3769,BBr,mp-685043,1,-4.5004508197222215,2.711940244033625,-0.342291664305555,999.8171720945642,1.4283,9.944692,10.091417960869967,0.0,1.0,-1
3770,IF7,mp-685049,17,-3.10582565875,3.86372797189604,-1.6723427147912502,446.78400582711487,1.7564,7.537714,7.802721000000001,0.0,1.0,-1
3771,CrTe2,mp-685055,164,-5.5086785733333326,6.4537860248218255,-0.19546212999999926,79.0406008496762,0.0,3.8467834224723374,6.167712,2.0,1.0,-1
3772,Sc12I25,mp-685088,2,-4.223594534594596,4.6622964297860205,-1.1400825174324325,2644.2155382727037,0.0,13.045935,15.90967146236408,2.0,1.0,-1
3773,BN,mp-685145,42,-8.782490615,2.155413045529032,-1.4665586357733336,19.11965805284616,3.9556,2.512642527828024,4.120513185355072,2.0,1.0,1
3774,ZrCl3,mp-685155,148,-5.19545897625,2.954752769184344,-2.1181455861950003,222.07901372851435,0.0,7.4706984722306276,7.470699122981798,2.0,1.0,-1
3775,In2Br3,mp-685174,4,-2.8333042275625004,4.274243779282839,-0.7504748115625002,5834.918025841528,2.3003,13.229479999999999,33.0513702057951,0.0,1.0,-1
3776,Ti4P8S29,mp-685300,9,-5.25538297304878,1.987066406729827,-0.9723351414031652,2288.3136577355413,1.071,12.894695547383812,13.452451904486745,2.0,1.0,-1
3777,Sn(PCl6)4,mp-685443,26,-3.0603922411206903,2.1800944124884363,-1.1378012500008867,3331.527930594291,1.544,14.519329,15.186764000000002,0.0,1.0,-1
3778,AsN2F7,mp-685810,8,-4.6865202756,2.866545157504372,-1.635728903909,683.3325524476805,3.5131,5.337827907647923,26.26649708925126,0.0,1.0,1
3779,Ti(PCl6)4,mp-685813,26,-3.2928529330172416,2.049635389771156,-1.2362646949434155,3314.0016922305326,1.3551,14.496579999999998,15.155694,0.0,1.0,-1
3780,Nb3(Bi5Cl9)2,mp-685855,143,-4.0631879511290325,5.404130553525347,-1.1027500220541941,1847.736579334192,0.0,11.022591,13.912746456914716,0.0,1.0,-1
3781,KSn2F5,mp-686016,1,-4.76252681,4.0411326894912545,-2.7334901442437505,915.942297515464,2.9857,7.4933130000000014,12.865929234380893,2.0,1.0,-1
3782,Tl9SbTe6,mp-686086,83,-3.048511776875,8.272794015631037,-0.283281549375,3283.9986288635555,0.4892000000000003,8.985083,40.677924,2.0,1.0,-1
3783,In2(PSe3)3,mp-686581,2,-4.045490880178571,4.276316543132887,-0.2450317128077165,1604.8058553225574,0.7303000000000002,8.169138,17.986929899936733,2.0,1.0,-1
3784,Co2TeBr2O3,mp-687088,56,-4.78430408296875,4.4256403865835585,-1.0814558321874994,1360.574791925206,2.3675,7.836192,16.260082999999998,2.0,1.0,-1
3785,Hf(MoO4)2,mp-687090,163,-7.913617950454545,4.536277356863329,-2.5907271631818167,1094.582388506526,3.2802,10.235906323244366,12.063275,2.0,1.0,1
3786,P2WO8,mp-687234,12,-7.268160352727272,4.257447814618378,-2.4137038124675327,291.5741273403258,2.4673,6.998668199010509,8.510566835872918,2.0,1.0,-1
3787,Sb2OsC6(OF2)6,mp-6880,128,-6.277717962037038,3.050387275908607,-1.9308062750659247,903.4269920254486,4.6355,8.445507000000001,12.666062,0.0,1.0,1
3788,Sb2RuC6(OF2)6,mp-6891,128,-6.192644763518517,2.718847073650269,-1.9180643652511105,904.6830543243336,4.7627000000000015,8.449588,12.671422999999999,0.0,1.0,1
3789,P4S5,mp-690,4,-4.8656881044444455,1.7039797209479557,-0.5303444622123021,553.9484859037733,2.4934,6.920533,11.562101,0.0,1.0,-1
3790,SnSe,mp-691,62,-4.179812505,5.834020472859625,-0.4270708386718751,225.05149498313725,1.3338,4.219403,11.789800999999999,2.0,1.0,-1
3791,VSe2,mp-694,164,-6.05021524,5.08600147515682,-0.6916388982291674,68.1916200679006,0.0,3.353805830809232,7.000427,2.0,1.0,-1
3792,CdCl2,mp-695850,12,-2.62494663,3.6412109152756544,-1.48141605884,83.5999471480403,3.5171,3.922799144938853,6.325046233838928,2.0,1.0,1
3793,Ga2NiS4,mp-6959,164,-4.5689233571428565,3.752303809514573,-0.8934537639285719,144.4443154204289,0.0,3.648916041330631,12.526856,2.0,1.0,-1
3794,Cr3(PO4)4,mp-695952,15,-7.244503610434783,2.716905832266012,-2.3530282471428574,655.0387449955899,0.0,10.077814006222033,10.76224885762957,2.0,1.0,-1
3795,CoCl2,mp-696114,164,-4.174261073333334,3.2227597384718365,-0.9689211571733338,66.90013316836016,0.09860000000000002,3.528326044311806,6.205245,2.0,1.0,-1
3796,PH3,mp-696588,1,-3.683579978125,0.5707185863796979,0.09954398326714298,395.6718034297767,0.0,7.318538,7.829572022578563,0.0,1.0,-1
3797,B5H9,mp-696597,107,-4.6147286535714285,0.7376104233225467,-0.14654373881523802,142.11289544145203,5.7318,5.810151853419409,5.810151853419409,0.0,1.0,1
3798,H2S,mp-696805,57,-3.789405945833333,1.189327969943855,-0.4719182159549996,380.66964937705575,4.3704,4.134278,13.54941,0.0,1.0,1
3799,HI,mp-697025,15,-2.445726976875,2.88167516890764,-0.06385233868499984,589.6668887589368,4.084899999999998,8.742547146149112,9.869371651649157,0.0,1.0,1
3800,H2S,mp-697135,142,-3.7434144975,0.9103993392461752,-0.4259267676216663,497.29941773434234,3.5428,8.837530757740481,8.837530757740481,0.0,1.0,1
3801,Te7WCl5O,mp-697593,54,-3.6619267403571434,4.829855039480389,-0.7244157880392851,1746.9593314343506,0.6478999999999999,7.780572,26.851546999999997,1.0,1.0,-1
3802,Mn3(PO4)4,mp-697730,15,-7.099156092826087,2.7674189157445284,-2.2284447926578808,653.6740296066741,0.0,6.322223342038307,10.889897492140546,2.0,1.0,-1
3803,Sb2Te,mp-6997,164,-3.863846442222224,6.281420401986868,-0.06341197222222268,294.3247954881338,0.014300000000000425,4.3658441619815065,17.830346,2.0,1.0,-1
3804,ScPS4,mp-6999,2,-5.644529375833333,2.2180311746365,-1.3715769701785714,305.7350451612888,1.9169000000000005,6.267451,7.5247117624244595,2.0,1.0,-1
3805,S,mp-7,148,-4.071945905,1.6885442388010592,0.064503961875,189.19913596697504,2.4881,6.639796845320648,6.639797230082633,0.0,1.0,-1
3806,GeSe,mp-700,62,-4.27515310375,5.121945771380412,-0.215683437421875,196.5953828743597,0.8969,3.877954,11.142221000000001,2.0,1.0,-1
3807,NbSe2,mp-7007,42,-6.52769583,3.2108137526211538,-0.8299864982291668,129.72007566114368,0.0,3.4847936744392776,12.702814766963265,2.0,1.0,-1
3808,GaAg(PSe3)2,mp-7008,163,-3.9722387510000003,4.387248952182136,-0.2059695415372019,539.9558631241122,0.6699999999999999,6.457501327107956,14.951976,2.0,1.0,-1
3809,AgB11H6CBr6,mp-703539,62,-4.9484493396,2.6673282723255296,-0.35674432396879924,1803.5743098812175,3.2973,11.366295,13.168282999999999,1.0,1.0,1
3810,Li2VP4O13,mp-704203,2,-7.03562137725,2.4519939139556937,-2.6322940601101186,537.3208240401947,1.8206,5.081606,13.744875996040347,2.0,1.0,-1
3811,Li2MoP4O13,mp-704204,2,-6.966203557,2.6124766921918723,-2.56723939186012,561.5173253600366,0.2652000000000001,5.198707,13.849830558777352,2.0,1.0,-1
3812,Zr(MoO4)2,mp-704604,163,-7.7228879771212116,3.649574494485265,-2.5281324825757574,1122.2891044633193,3.0967,10.359352001086748,12.075606,2.0,1.0,1
3813,K2Cr2O7,mp-704810,12,-6.165801824545454,2.232344059461417,-1.873024450431818,437.6610487273659,2.5105000000000004,8.140858345443066,8.696858964003038,2.0,1.0,-1
3814,Ni5Te4(BrO6)2,mp-704879,15,-4.848350493913044,5.2308384168275825,-1.158101545,733.7376447103238,0.0,10.571472004446921,16.458248739396605,2.0,1.0,-1
3815,ZrTlCuS3,mp-7049,63,-5.552000871666666,5.714884554160093,-1.314079224895833,264.61554346167287,0.6078000000000001,7.437638673173429,9.825925999999999,2.0,1.0,-1
3816,Cr(PO3)5,mp-705300,11,-7.041677700238094,2.4252646980060715,-2.3563701379336734,611.9098639469298,0.22190000000000004,5.0908760000000015,13.708081,2.0,1.0,-1
3817,HgF,mp-706,139,-2.2961860825,8.970179704918127,-1.4340708330949998,81.29940181376568,1.9778,6.142321465604677,6.142321465604677,0.0,1.0,-1
3818,Mn3(P2O7)2,mp-706469,2,-7.3918604130952374,3.2266977074340577,-2.46162093850625,527.6972042881137,0.0,5.335293836877403,16.28408385384689,2.0,1.0,-1
3819,B5H7,mp-706630,13,-4.844981331354167,0.9855374776142912,-0.17205504103527738,823.7251877481569,3.5580000000000003,5.6360790000000005,14.3144247360129,0.0,1.0,1
3820,B10H13,mp-706664,14,-4.903242380217392,0.9297493518374524,-0.16800349733594172,1731.9015005547,3.409,7.3346350000000005,16.606582887493865,0.0,1.0,1
3821,B9H11,mp-706937,14,-4.9596602865625,0.961888882196952,-0.17207882592850013,1496.8860140661307,3.319,9.301136,13.408664000000002,0.0,1.0,1
3822,NbCl4F,mp-707060,2,-4.83321504125,2.3943810058261543,-2.077005194455,703.8255471130677,2.5127,8.439891000000001,10.22838772432552,0.0,1.0,-1
3823,Al2Si4O11,mp-707135,2,-7.759263557058822,2.468967163558755,-3.2948677984558823,230.217721085039,4.1914,5.227752,9.720321472209962,2.0,1.0,1
3824,AsH12C4I3,mp-707477,84,-4.5076535747,2.6100976681053654,-0.2568976253720001,3281.3383802135327,1.7628,14.061053,15.276244,0.0,1.0,-1
3825,Ta2C,mp-7088,164,-11.57843851,14.768671437371712,-0.5976598566666667,42.04076762876415,0.0,3.125052502167124,4.97079,2.0,1.0,-1
3826,MoO3,mp-715474,7,-6.97163071375,3.913219628663733,-1.9587208546875008,244.31545065892638,0.5050000000000001,5.203673,9.189545456869618,2.0,1.0,-1