,pretty_formula,task_id,spacegroup.number,final_energy_per_atom,density,formation_energy_per_atom,volume,band_gap,min_abc,max_abc,Dimension,Dim,is_uv
400,Au(OF3)2,mp-1182345,2,-3.3568548444444444,4.393264784661674,-0.9789511466266668,129.62830886291593,0.1948000000000003,5.063586,5.235626863858043,0.0,1.0,-1
401,CaO10,mp-1182382,124,-5.0856812377272735,2.512920777574513,-0.5379217315909092,264.4153171063857,0.0,5.608848,8.40503,1.0,1.0,-1
402,BaO10,mp-1182404,124,-5.086612961818182,2.9526460392690925,-0.5467288238636366,334.4208071366346,0.2026,5.710816,10.254086000000001,2.0,1.0,-1
403,BO2F3,mp-1182442,14,-5.4863011945833335,1.5866321009417297,-2.0621356762894454,417.81612103983167,0.0,6.286559,8.42088764724064,0.0,1.0,-1
404,AsN(OF3)2,mp-1182477,12,-4.914154723,2.657416696194527,-1.951532489702,146.79283027722812,2.7498,5.264346861301696,5.329055185986067,0.0,1.0,-1
405,BaO10,mp-1182511,124,-5.060724091818182,2.476528589771376,-0.520839953863637,398.7138592784478,0.11780000000000004,6.047922,10.900564,2.0,1.0,-1
406,BaO10,mp-1182576,124,-5.069246868181818,2.9429105019607507,-0.5293627302272729,335.52711541287863,0.0,5.925285,9.556726,1.0,1.0,-1
407,AgSbS2,mp-1182950,9,-3.916821564375,3.3268181965485253,-0.4399373201041668,586.5027042838361,1.5809,7.998097169273826,13.914933615346355,2.0,1.0,-1
408,AlPb3OF9,mp-1182997,14,-5.1309565075000005,6.2380209808680895,-2.8116390994257143,889.6994301032165,0.19699999999999995,5.7544580000000005,26.805979406449023,2.0,1.0,-1
409,AsN(OF3)2,mp-1183269,12,-4.902891215,2.940310103539661,-1.940268981702,132.66958392951486,2.7607,4.8626233161537415,5.719823354203258,0.0,1.0,-1
410,AlTl2F5,mp-1183276,63,-4.940033519375,5.7098528117994976,-2.9935794619937486,308.6996425215632,4.0615,6.387520202258228,7.569417999999999,1.0,1.0,1
411,Br2Cl3,mp-1183535,166,-1.649017026,1.9692021093174288,-0.2419358239560001,224.4465916669788,0.0,6.078909137797092,6.078909368741896,2.0,1.0,-1
412,B4H5,mp-1183667,14,-4.9263872679861125,0.98126689237535,-0.1579150024046293,1307.3217205714175,2.8479,5.871894999999999,16.546381987175597,0.0,1.0,-1
413,GaHg3,mp-1184013,139,-0.91819934,10.8876910444002,0.066584809375,102.41293171355423,0.0,5.932285133928156,5.932285133928156,2.0,1.0,-1
414,Hg,mp-1184554,194,-0.303680365,10.466899494409137,0.0,63.64588320489973,0.307,3.579844133727054,5.73471,0.0,1.0,-1
415,Hg,mp-1184657,223,-0.29859498125,10.634970792149756,0.0050853837500000046,250.56018516960202,0.5669,6.304307,6.304307,1.0,1.0,-1
416,Hg,mp-1184687,69,-0.28448253,10.099456407188212,0.019197835,65.96147712112928,0.0,3.4936926862540445,6.72707178987745,2.0,1.0,-1
417,Hg,mp-1184709,194,-0.2971122775,10.384381870106305,0.006568087499999986,128.30326755535006,0.3035,3.592682104166329,11.478087,0.0,1.0,-1
418,InPb,mp-1184798,8,-3.189617115,8.895180103503987,0.04254828500000008,60.11384400612199,0.0,3.4336591824683182,5.954195523563279,2.0,1.0,-1
419,HI3,mp-1184859,2,-1.90408570125,2.378165131906544,0.048857925344999886,533.0691344567247,1.2837,5.805519,11.621330488245395,0.0,1.0,-1
420,IF7,mp-1184928,41,-3.146743718125,3.4993734459532524,-1.7132607741662502,246.65156311142792,1.8034,5.198261588970297,9.49071,0.0,1.0,-1
421,KCl3,mp-1185148,139,-2.280788955,2.032776402422387,-1.0628009856949998,118.82149403364015,0.0,7.655595890754488,7.655595890754488,2.0,1.0,-1
422,Cs3As,mp-1185538,194,-2.00375239875,3.6479730197144313,-0.16742101844827584,431.19525534537973,0.0,5.644916,9.391672401826256,1.0,1.0,-1
423,Mg2Ag,mp-1185754,63,-2.1731395033333336,4.351268737924871,-0.16210080222222226,119.43098890056856,0.0,4.836937,5.625502111621504,2.0,1.0,-1
424,Mg2Pd,mp-1185771,139,-3.3185663966666668,4.744328789210988,-0.5250857600000002,54.26128393133789,0.0,5.557179366170575,5.557179366170575,2.0,1.0,-1
425,Mg5Pb,mp-1185831,8,-1.94578303,3.749738415473432,0.006558189999999797,145.5730091506039,0.0,6.130554255399915,7.668561862470955,2.0,1.0,-1
426,MgHg2,mp-1185877,12,-0.8422053799999999,10.074451538370873,-0.10632511999999987,140.26261619529393,0.0,6.859667854231793,6.888265131349257,2.0,1.0,-1
427,MgHg2,mp-1185878,12,-0.8595278766666666,10.160804865754224,-0.12364761666666653,139.07057050836409,0.0,6.154381006732846,7.106270054509609,2.0,1.0,-1
428,MgIn2,mp-1185905,12,-2.3903630833333334,5.561180374588454,-0.022480579999999858,151.6508808231836,0.0,6.051497009148233,8.172401257797429,2.0,1.0,-1
429,MgIn2,mp-1185920,12,-2.3904235666666667,5.513575531642667,-0.02254106333333332,152.96025190602194,0.0,6.574929344577018,7.66146876158038,2.0,1.0,-1
430,MgPb2,mp-1185928,12,-3.00375158,8.432203073413076,0.004773150000000115,172.78682329406604,0.0,6.769134292305701,7.9028125755758625,2.0,1.0,-1
431,MgPb2,mp-1185936,12,-3.0024711366666668,8.399739986683537,0.006053593333333514,173.45460511102814,0.0,6.841505382585107,7.7786692356323375,2.0,1.0,-1
432,MgPb2,mp-1185955,194,-3.0166170450000003,8.591901220698514,-0.008092315000000147,169.57522497064454,0.0,3.4998271713210354,15.985952,2.0,1.0,-1
433,MgPb5,mp-1185962,8,-3.335423828333333,9.594732477698123,0.02516207166666658,183.5046343505471,0.0,6.775794691614113,8.106105799901824,2.0,1.0,-1
434,MgPb3,mp-1185974,194,-3.15153960375,9.067442678185044,0.03301571125000047,236.57177086824586,0.0,6.139337,6.6704543301500845,2.0,1.0,-1
435,ZrS2,mp-1186,164,-7.120472333333333,3.3074692329234634,-1.9559122120833337,77.99660948759788,1.0418,3.690919581418701,6.6111330000000015,2.0,1.0,-1
436,NbSe2,mp-1186234,38,-6.520090551666668,5.979945472871844,-0.8223812198958337,278.60254232306977,0.0,3.4863947069391035,26.450009,2.0,1.0,-1
437,NbF5,mp-1186248,12,-6.19823332875,3.601945752740141,-3.330890710575,346.49342164258525,4.3945,4.890430720006265,8.747226976129294,0.0,1.0,1
438,Ta2Mo2O11,mp-1186878,166,-8.335325091333331,4.952262449582678,-2.66551432625,244.69829943725705,2.6310000000000002,9.268962433027335,9.268962436353108,2.0,1.0,-1
439,ScBr3,mp-1186984,194,-4.4790625575,2.909994052698728,-1.6682503762499996,324.8818934492782,2.25,3.5204989999999996,10.322747995786779,1.0,1.0,-1
440,ScI3,mp-1186991,194,-3.91532258625,3.036565389314382,-1.1891958487499998,465.55265440454133,1.7014,3.8153129999999997,11.870089579797867,1.0,1.0,-1
441,Sr2Mg,mp-1187100,139,-1.6947844966666663,2.588458229916122,-0.0350369777777777,128.01144102504384,0.0,7.750048130921058,7.750048130921058,2.0,1.0,-1
442,TeS3,mp-1187407,194,-3.32976818875,4.296713420439302,0.06079944390624981,172.97888131983075,0.0,3.719464,7.328094376443647,1.0,1.0,-1
443,TlSn,mp-1187560,8,-3.132188595,9.052567736303152,0.05342382249999966,59.26595220659579,0.0,3.447325455054832,5.794370806782478,2.0,1.0,-1
444,Tl3As,mp-1187593,194,-2.88237967375,9.89695004049939,0.05363966250000018,230.89327554217067,0.0,5.5488370000000025,6.9316930514768895,1.0,1.0,-1
445,Tl2S,mp-1187792,143,-3.2960316788888893,7.607769722849853,-0.563933069930556,288.65940489491015,1.0166,6.264771,7.2941542917502105,2.0,1.0,-1
446,SnPbS3,mp-1188095,62,-4.457281924,5.558311572013088,-0.8290442188750007,504.41349580792615,1.1473000000000004,3.85485,14.432815,1.0,1.0,-1
447,LiAl(PS3)2,mp-1188124,15,-4.7773110775,2.175665033927013,-1.0454101154226187,440.01910939744346,2.7627999999999995,6.2343054125287285,12.369061591977179,2.0,1.0,-1
448,H2,mp-1188177,62,-3.357406694375,0.21005122513482505,4.440892098500626e-16,127.49071057039505,7.396800000000002,4.697337,5.477365,0.0,1.0,1
449,TlBr3,mp-1188193,62,-2.211278654375,2.8647638316820765,-0.393170504375,1029.6661620590937,1.9392,6.816239,13.827353,0.0,1.0,-1
450,Bi2O3,mp-1188267,227,-5.682613111,8.137834278246185,-1.5792001057499996,380.3189381736202,2.5954,8.132442161494295,8.132442161494295,0.0,1.0,-1
451,Sn4Rh,mp-1188303,142,-4.9507915195,7.994721634092383,-0.2702724615000001,480.0011893903867,0.0,12.553334825603836,12.553334825603836,2.0,1.0,-1
452,SiH8,mp-1188318,31,-3.6004703361111114,0.6116753577960788,-0.11789174599555548,196.27032269400848,7.0503,5.213467,7.209817,0.0,1.0,1
453,Tl2Hg3S4,mp-1188364,15,-2.6703608227777784,7.443493735826122,-0.5007712091666667,508.0991024710998,1.8278,6.949148041152959,13.652544079491742,2.0,1.0,-1
454,Si5(H2Cl)4,mp-1188581,82,-3.9553527311764713,1.5394365700072319,-0.5400664195294115,313.14021977514574,3.9181,7.515255430078808,7.515255430078808,0.0,1.0,1
455,IN4,mp-1188721,33,-6.8731328560000025,2.3759119116982426,-0.20635258290399888,511.407041384172,0.0,5.977135,9.512661,1.0,1.0,-1
456,Te6IrI3,mp-1188875,167,-3.429733746,5.58997024522537,-0.2027063615000003,795.2393090233716,1.1590000000000005,10.129073682416424,10.129073918953546,1.0,1.0,-1
457,Te6IrBr3,mp-1188957,167,-3.5607785375,5.694609583427416,-0.2998769754999998,698.395090568996,1.2675,9.58017710960554,9.580177179485773,1.0,1.0,-1
458,P2S3,mp-1189177,11,-4.7990056505,1.897535348380931,-0.5498973858035718,553.5640522676799,2.214,6.921291,10.937972,0.0,1.0,-1
459,BiI3,mp-1189196,62,-2.57128030125,4.227851617394497,-0.4557622625,926.4370630307563,2.7885,7.782708,15.230125,1.0,1.0,-1
460,NaCl3,mp-1189265,62,-2.54816907,2.101380976384653,-1.2791177832783336,408.8524394574197,2.7103,6.193582,8.419816,2.0,1.0,-1
461,As2O3,mp-1189365,86,-6.028088341,3.2386050097799184,-1.6170416977499995,405.7591125793537,3.6419,7.025003,8.221958,2.0,1.0,1
462,TlBi2Cl7,mp-1189438,2,-3.3078417335,4.583900606712364,-1.4159738897819998,630.6961933242943,3.3238000000000003,7.184245,11.00165271788639,2.0,1.0,1
463,N2,mp-1189505,53,-6.15903166625,0.9555613117216992,8.881784197001252e-16,389.4451942971949,0.2737000000000003,4.239789,9.709648,0.0,1.0,-1
464,As2S3,mp-1189572,2,-4.4699035575,2.8940299398762863,-0.5224622753749998,564.6880667632747,2.0010000000000003,5.878595,11.033381813104224,2.0,1.0,-1
465,Sb2S3,mp-1189633,31,-4.3821588264999995,4.253169420951939,-0.6467644103750004,530.531444368149,1.2954000000000008,3.8774019999999996,12.201114,1.0,1.0,-1
466,PBr3O,mp-1189731,33,-3.851648914,2.6693273112703166,-0.9377027239642856,713.3661118373668,3.2974,6.5642270000000025,10.600444,0.0,1.0,1
467,AlBi2Se2BrCl4,mp-1190020,2,-3.729267428,4.584375992026389,-1.2122876427727498,597.3526373486608,1.1162,7.073246000000001,11.560652471814642,2.0,1.0,-1
468,TeO2,mp-1190021,2,-5.359120312777779,5.54419704456597,-1.4809096902777776,286.8080339701136,2.5813,5.874484,7.8374896323252,2.0,1.0,-1
469,GaHCl2,mp-1190111,15,-3.260700536875,2.302138339970366,-1.066817007535,408.6525436984951,4.8033,6.9643403297320985,10.27947413102037,0.0,1.0,1
470,CuPb3(ClO2)2,mp-1190173,11,-4.797877837,6.884884003194151,-1.3251266661519998,395.56930711336577,0.0,5.566743,10.392229564983491,2.0,1.0,-1
471,CuSb6(SO8)2,mp-1190199,2,-5.965316737199999,4.791163882395749,-1.81532308345,386.17265275257193,0.4698000000000002,5.636026,9.42774610140674,2.0,1.0,-1
472,RbHf2Br9,mp-1190209,13,-4.477564300416667,4.34600433826813,-1.508626747708334,887.6453537081944,3.1699,7.033739999999999,13.373738418419626,2.0,1.0,1
473,FePH12(CBr)4,mp-1190395,216,-4.806969604545454,1.8719884563710272,-0.43356243918233744,413.87137240018944,1.3047999999999995,8.364887959460187,8.364887959460187,0.0,1.0,-1
474,NaNbSe2O7,mp-1190450,36,-6.366349209545455,3.831977619992375,-1.9911275283428045,334.37346335118343,2.9089,6.887925999298773,7.5163509999999985,2.0,1.0,-1
475,TlSO3F,mp-1190566,62,-5.3472596533333325,4.6301910141613725,-2.0152280888441663,435.30136427040617,4.4638,5.433957,14.029417,0.0,1.0,1
476,NbS3,mp-1190583,11,-6.400574379999999,3.992007840960719,-1.2705057198437508,471.95833507541687,0.0,3.380758,14.995224832950655,2.0,1.0,-1
477,Ge3F8,mp-1190647,14,-4.860021293636363,3.838322361413049,-2.5660681449563643,320.05930783796384,4.3787,5.094397,13.01652627632123,2.0,1.0,1
478,CO2,mp-1190699,167,-7.677679169583333,1.5306339793672334,-1.7716419570833324,381.9567318464673,6.6876,7.255637386728338,7.255637659663553,0.0,1.0,1
479,TaTe4Os,mp-1190784,31,-6.180606130416668,8.975644532828245,-0.23755349708333404,652.385243036861,0.0,3.7731220000000003,13.757012,2.0,1.0,-1
480,TaTe4Rh,mp-1190788,31,-5.710808939166667,8.03586770657359,-0.4115940691666668,656.5009850474282,0.0,3.7824120000000003,13.569759,2.0,1.0,-1
481,TcCl3,mp-1190915,166,-4.684504217083333,3.082861384114912,-1.153961007028333,660.4502651851836,0.6751000000000001,9.210168366931192,9.210168401985383,2.0,1.0,-1
482,Bi3Te4(ClO2)5,mp-1191023,12,-4.849584913636363,5.698274114714106,-1.5328023581272734,429.7145399504926,2.5495,8.03666631615703,13.590250175903645,2.0,1.0,-1
483,AgAs(SeF2)3,mp-1191037,12,-4.068258596818182,4.2919034515113745,-1.6589213564398109,412.94668078325975,1.7329,5.442228240936337,9.305935268832464,2.0,1.0,-1
484,NaPb2C2O7,mp-1191095,194,-6.47792134625,5.704946368937441,-1.7351575097569445,333.8031988291903,0.0,5.2715614720495285,13.870154000000001,2.0,1.0,-1
485,SnSb4S7,mp-1191223,11,-4.396630689583334,4.351932118291823,-0.6602551993229161,633.55208597682,0.7078999999999995,3.8993589999999996,14.77170733925236,1.0,1.0,-1
486,BiIO4,mp-1191266,29,-4.978637793333333,7.072493721918131,-1.2458529933333338,375.55096665588167,2.3945,5.737024,11.266582000000001,2.0,1.0,-1
487,InTeBrO3,mp-1191326,14,-4.886546611666667,5.578500253440367,-1.5083953439583333,440.9293762221383,2.9029000000000003,7.045159,8.797288130766946,2.0,1.0,-1
488,HgBrO4,mp-1191395,57,-3.4177330616666666,5.532253994011573,-0.2638549316666665,413.6048421021529,0.0,4.777042,11.8623,1.0,1.0,-1
489,HgClO4,mp-1191480,57,-3.54338628,4.526264148151159,-0.4533540772099999,440.3005406298395,0.04300000000000015,4.937494,12.146892,1.0,1.0,-1
490,AsS2,mp-1191613,4,-4.378813689166667,3.0851744065304447,-0.5104476429166667,598.7359770247931,1.2919,7.366164,10.390956,1.0,1.0,-1
491,PW6Cl17,mp-1191628,44,-5.551268962916668,4.909007766363282,-1.1980393259996431,587.4675386750049,0.0,10.305545283090506,10.305545283090506,1.0,1.0,-1
492,H2S,mp-1191644,73,-3.7791623379166666,1.2229814749187284,-0.4616746080383329,370.19453736446746,4.1915,7.917344283049526,7.917344283049526,0.0,1.0,1
493,TaSe3,mp-1191680,11,-6.227230058333332,7.5483120882304275,-0.6408520425911467,551.5030457761403,0.0,3.521238,15.817482507773287,2.0,1.0,-1
494,TaTe4Ru,mp-1191708,31,-5.961012312916666,8.100918034867204,-0.3434504787499992,649.7243108244437,0.0,3.7676160000000003,13.636003,2.0,1.0,-1
495,TlAgTeO3,mp-1191720,45,-4.60903984875,7.092019790697759,-1.096622128819444,456.9042441430568,2.3702999999999994,9.878708527883642,9.878708527883642,2.0,1.0,-1
496,KPb2C2O6F,mp-1191763,194,-6.518057252916668,5.607434570772456,-2.027740800140833,350.9246403761975,3.0942,5.371027400331523,14.046510999999999,2.0,1.0,1
497,In2As2Cl2O5,mp-1191856,2,-5.259008612272726,4.227394858196299,-1.7537691970700011,416.672864907174,3.1661,6.843761,9.170667831349363,2.0,1.0,1
498,S4I2O15,mp-1191944,1,-5.390641534285713,3.0812169779334453,-1.5513574043452378,335.24248358181154,2.3887,5.604986,9.286077509932436,2.0,1.0,-1
499,CdIClO3,mp-1191962,64,-3.88394049625,4.723675073077428,-1.144315536585,453.85565826585366,3.3965,7.448361999999999,9.026253436274487,2.0,1.0,1
500,ZrCl3,mp-1192044,12,-5.245392678333333,1.8825473276523048,-2.1680792882783333,1045.6925642507665,0.0,6.908616876701879,13.520428922891462,2.0,1.0,-1
501,Sb4IO6,mp-1192087,12,-5.497068871363636,5.548296242960493,-1.5412497452272726,424.95371479369874,0.0,9.79952193804259,11.25629377475486,1.0,1.0,-1
502,HgNO4,mp-1192100,14,-4.865498952916666,4.864673094013403,-0.6590298816466665,380.3887413946797,0.0,7.0301490000000015,8.412400985993237,1.0,1.0,-1
503,Tl3V5O14,mp-1192129,157,-6.841577076363635,5.014825782483621,-2.1354949921590918,361.5395624831089,2.145,5.328394,8.851450380767323,2.0,1.0,-1
504,NbTe4Os,mp-1192146,31,-5.9223966429166675,8.093880873387944,-0.27208944124999945,651.2070935419041,0.0,3.7789269999999995,13.657905,2.0,1.0,-1
505,As3Pb2BrO6,mp-1192209,11,-5.625372548333334,5.7306819540038,-1.5825751560416668,472.35132477751336,3.2494,5.463982,10.82021362325185,2.0,1.0,1
506,CuIO4,mp-1192231,62,-4.595469483333333,4.55842585268151,-0.8278226233333328,370.7604109935643,0.9538,5.46877,10.522794000000001,1.0,1.0,-1
507,CdC2(NO)4,mp-1192278,18,-7.211961971818181,1.3869885966017248,-1.0147799913200002,614.073592729772,2.4484,6.85288,11.060562,0.0,1.0,-1
508,HgTe2(OF5)2,mp-1192364,15,-4.082873727,4.2513635459215,-2.13039942696,529.4622554195934,2.4806,6.0326270333077945,10.740067149573786,0.0,1.0,-1
509,Hg3Bi2(TeCl4)2,mp-1192395,15,-2.7091956953333334,5.4857831293191275,-1.0419610694053332,943.5448218887816,3.0086,9.835837264583935,13.738147655246431,2.0,1.0,1
510,Ir(SeBr3)3,mp-1192469,2,-2.8556252957692303,4.216492215218664,-0.2357403947716343,904.3942958924392,1.6352000000000002,8.151353,13.929539665601482,0.0,1.0,-1
511,SiH2,mp-1192532,11,-4.019617383,0.9276544243991692,-0.051354935413333185,538.8269180190274,4.0154,5.311044,13.887445000000001,0.0,1.0,1
512,FeBi2Se2Cl3O7,mp-1192577,11,-5.011124095333333,5.331834298965432,-1.4117837175478334,529.4958421092222,1.3947000000000005,7.2421960000000025,8.757328465822898,1.0,1.0,-1
513,TaH6C2SeCl5,mp-1192701,36,-4.868456113666666,2.532385557161227,-0.9007944230242496,612.76092774983,2.2734,7.601523417928804,11.489942999999998,0.0,1.0,-1
514,Te7RuI6,mp-1192722,2,-3.0389842192857146,5.390709228867241,-0.15172908678571415,1081.6399234087446,0.8648000000000002,10.266649000000001,11.727469900049414,0.0,1.0,-1
515,Mn2Sb3I3O5,mp-1192820,2,-5.546274072307692,4.652797565799613,-1.4578831840369502,668.003652596107,2.0829,6.5097048894174145,10.570140777233432,1.0,1.0,-1
516,KNb2Cl11,mp-1192824,2,-4.3236123878571435,2.391408322667832,-1.816085975632857,853.9366521156917,2.1275,7.050938,17.66363712975182,2.0,1.0,-1
517,AlSb5Se5Cl4,mp-1192837,2,-3.9232026116666665,3.906513116140329,-0.7974997233172493,996.6971641442618,1.3950999999999998,9.701918,11.945930135033018,0.0,1.0,-1
518,Nb8PtSe20,mp-1192941,12,-6.154403172758621,6.1247492386049815,-0.7475211871336206,682.5528887132963,0.0,10.511820799772273,19.672950305853288,2.0,1.0,-1
519,BiW2(Br4O)2,mp-1192987,2,-4.128261597307692,4.921751749433484,-0.8443361736538463,842.0465695795692,1.8451,7.798773,11.639094846518953,2.0,1.0,-1
520,NaC2NO3,mp-1193256,14,-7.195667429285713,1.7399205384720295,-1.41599854206619,416.1694466474562,4.4435,3.587907,21.615761181613408,2.0,1.0,1
521,ReS2ClO9,mp-1193300,2,-6.348366946153848,3.2945328184089218,-1.8210325527507687,433.24753939936136,2.4051,7.276783,8.283168587627985,0.0,1.0,-1
522,VAsO5,mp-1193420,14,-6.702057170714285,3.7812967678296254,-1.9464354823214285,361.6100605617261,2.4923,6.424126,9.081664430167248,2.0,1.0,-1
523,Te7IrBr7,mp-1193453,2,-3.1350409106666666,5.310665047548643,-0.315039396666666,1028.5579311222791,1.3075,9.899467999999999,12.070372263639634,0.0,1.0,-1
524,Mn4SiTeBr2O7,mp-1193463,11,-6.788524836666666,4.438334049765421,-2.0228213974140448,484.31224464540117,2.7267,5.591950558297706,13.193952997752907,2.0,1.0,-1
525,Cu3(I3O10)2,mp-1193512,2,-4.372858544137931,4.784459099472794,-0.7054445760344829,441.4905339292072,0.014699999999999937,7.262399,8.173698338023554,2.0,1.0,-1
526,Te7RhCl7,mp-1193541,2,-3.2804455846666665,4.315583968148326,-0.7374875035213331,957.5388884340672,1.3977999999999997,9.554657,11.758388526822586,0.0,1.0,-1
527,C3N4,mp-1193580,187,-8.420579521071428,1.9703625312749409,0.07802488614000071,310.3335502006495,1.1413000000000002,7.03989,7.1345423322358945,2.0,1.0,-1
528,Re(TeCl2)2,mp-1193652,82,-4.256599654285714,4.319477936562757,-0.8642378040057146,896.8286891207408,2.1909,10.668364984216137,10.668364984216137,0.0,1.0,-1
529,Al2(PS3)3,mp-1193708,5,-4.860690143928571,2.2617784170975024,-0.9329817120599492,639.4206297440778,2.2363000000000004,7.261850958770361,10.276676920886292,2.0,1.0,-1
530,ZnC2(N2O)4,mp-1193746,14,-7.5050370776666675,1.0248453620150466,-0.8173207852693328,860.3104128737857,1.7147,8.957421,11.655228055616286,0.0,1.0,-1
531,Te7IrCl7,mp-1193756,2,-3.3635262060000004,4.722324670518262,-0.7222932881880003,937.874935441882,1.4028000000000005,9.477349,11.66483972158469,0.0,1.0,-1