,pretty_formula,task_id,spacegroup.number,final_energy_per_atom,density,formation_energy_per_atom,volume,band_gap,min_abc,max_abc,Dimension,Dim,is_uv
1309,Cr2S2BrCl,mp-1226363,25,-6.0109115,3.460599005399582,-1.1537694682516662,136.02508855664468,0.0,3.5036370000000003,8.172696,2.0,1.0,-1
1310,Cr2C,mp-1226378,164,-9.548404576666666,6.5069847922023225,-0.03744602999999932,29.60316543535325,0.0,2.8330892108710586,4.258797,2.0,1.0,-1
1311,CdAg,mp-1226716,65,-1.89742755,9.293554316663222,-0.019704668333333286,39.35870009427415,0.0,2.9536115098922537,4.790232,2.0,1.0,-1
1312,CdBiIO2,mp-1226753,107,-4.221785514,7.45490248589109,-1.2561319894999996,106.98303090136575,1.5517,7.192594357144159,7.192594357144159,2.0,1.0,-1
1313,CdBiBrO2,mp-1226758,107,-4.334693202,7.18584809040806,-1.3464568924999996,100.1276310574408,1.2683,6.9367704344989685,6.9367704344989685,2.0,1.0,-1
1314,CdBi8(Br5O4)2,mp-1226909,65,-4.333728406666666,7.04868962164332,-1.2827005033333334,638.728928527972,0.5924,5.5832809999999995,20.677378286404227,2.0,1.0,-1
1315,CdBi8(Cl5O4)2,mp-1226921,65,-4.533886702962963,6.7675777000063935,-1.6247386378740738,556.1924688445839,1.4318999999999995,5.520785,18.455031745868823,2.0,1.0,-1
1316,Cd5Bi6(Cl3O2)4,mp-1226955,71,-4.066444385806451,5.92216129503669,-1.5836640590038709,664.3569682529178,2.5039,12.423870757854655,12.423870757854655,2.0,1.0,-1
1317,CdBi12(Cl7O6)2,mp-1226996,65,-4.659540543589744,6.858597731087997,-1.6824841133497437,801.0254164139018,1.1852,5.514359,26.484891758873573,2.0,1.0,-1
1318,CaMg(PSe3)2,mp-1227124,146,-4.273736461,3.605933940324229,-0.7329444091205358,276.3427658657735,2.3479,8.19329066264355,8.193291024219876,2.0,1.0,-1
1319,CaBiIO2,mp-1227238,107,-5.281431042,6.122036427857116,-2.0992354935,110.65538382421856,1.8877,7.366431956386213,7.366431956386213,2.0,1.0,-1
1320,CaBiNO5,mp-1227260,44,-6.141505895,4.578315754579261,-1.7569516798287497,124.42742044387177,2.2904,7.892615545594375,7.892615545594375,2.0,1.0,-1
1321,BaSrN,mp-1227306,160,-4.4472636366666665,4.0119943208381335,-0.5936222130155553,98.90142463504878,0.0,7.6335117536031225,7.6335118508873085,2.0,1.0,-1
1322,Bi2BrClO2,mp-1227332,99,-4.722618305,7.675541676800162,-1.5289221259599994,122.30150506965006,2.3954000000000004,3.947433,7.848782000000001,2.0,1.0,-1
1323,Bi2Te2S,mp-1227335,160,-3.874352474,7.215864236410702,-0.3664204046249999,162.28894465131197,0.8168999999999995,10.360408377585363,10.360408436096957,2.0,1.0,-1
1324,BiSbTe3,mp-1227340,160,-3.668279478,6.854835222929022,-0.17849181000000058,172.85050205643122,0.28190000000000026,10.673069632749382,10.673069952530057,2.0,1.0,-1
1325,Bi2TeSe2,mp-1227356,160,-3.9240133260000003,7.266132745943795,-0.3409748249374999,160.7674112002876,0.4376999999999995,10.433439804949325,10.433440598973332,2.0,1.0,-1
1326,BiPbIO2,mp-1227389,107,-4.906924144,8.29069059039695,-1.3833191574999997,115.18327577015269,1.7573,7.51551144116766,7.51551144116766,2.0,1.0,-1
1327,Bi2Te4Pb,mp-1227398,160,-3.695316098571429,7.624655013666622,-0.25732761142857136,247.3086411804436,0.3841000000000001,14.428573452802606,14.428573634575699,2.0,1.0,-1
1328,Bi(SbTe2)3,mp-1227403,160,-3.6680567460000004,6.554611844251237,-0.15437238499999992,339.43894632626603,0.11370000000000058,20.73141032396255,20.73141068268797,2.0,1.0,-1
1329,Bi(SbTe2)3,mp-1227414,8,-3.6613594060000003,6.5842084881307406,-0.14767504499999973,337.91313595264813,0.2588999999999997,7.591865202578151,10.460487904801763,2.0,1.0,-1
1330,BiPbO2F,mp-1227424,8,-5.419634461999999,8.585313269196057,-1.916721971738,90.35973840786792,2.2345,4.000558768447354,6.511621364132669,2.0,1.0,-1
1331,Bi4(TeS)3,mp-1227434,160,-4.028107575,7.000620741099635,-0.4872066119375006,311.89668236160907,0.5465999999999998,20.26763535943831,20.26763584377068,2.0,1.0,-1
1332,Bi4(TeSe)3,mp-1227438,160,-3.86659174,7.2858141917130075,-0.3188142937031245,331.75198524204643,0.3687000000000005,20.819317643429734,20.81931815392488,2.0,1.0,-1
1333,Bi4(TeSe)3,mp-1227439,8,-3.863326677,7.243771717577152,-0.3155492307031246,333.67745650244154,0.3296000000000001,7.4700157175120445,10.649685501399654,2.0,1.0,-1
1334,Bi2Sb2(TeSe)3,mp-1227440,160,-3.8591471960000003,6.65594670312484,-0.2635763637031253,319.62659166091686,0.3248999999999995,20.528638633411425,20.528638976367358,2.0,1.0,-1
1335,BiPbBrO2,mp-1227444,107,-5.03383906,8.267326653823874,-1.4876512884999995,106.06848147333677,1.7955,7.180147959561976,7.180147959561976,2.0,1.0,-1
1336,BiSbTe2,mp-1227463,156,-3.7017961483333335,6.9883063599044695,-0.12538679583333412,417.68786661173135,0.4796000000000005,4.3765576456778215,25.18001,2.0,1.0,-1
1337,BiSbS3,mp-1227486,62,-4.3790976950000005,5.372816125138688,-0.6914966648750009,527.799868152903,1.3483,3.9688849999999998,11.867692,2.0,1.0,-1
1338,Bi2Se2S,mp-1227504,62,-4.129863272,7.1569752223912175,-0.4808869835625004,564.2147526888323,1.1702999999999997,4.133573,11.899887,2.0,1.0,-1
1339,BiSbSe3,mp-1227508,62,-4.007206384,6.343065923102981,-0.3058523874062501,594.3850249237372,1.0106000000000002,4.113691,12.417885,2.0,1.0,-1
1340,Bi4IBr3,mp-1227510,36,-3.1755993875,6.200035206384768,-0.4262332031250001,644.1451952570873,0.6896999999999998,7.5256048459470035,20.633498,1.0,1.0,-1
1341,Bi4(SeS)3,mp-1227512,26,-4.1890139495,6.974727218615763,-0.5423298221406256,556.628083702412,1.2624000000000004,4.10931,11.8573,2.0,1.0,-1
1342,Bi4I3Br,mp-1227536,36,-3.058560170625,6.077101441863572,-0.3374224674999997,708.5462364161798,0.8254000000000001,8.038963038065358,20.851134,1.0,1.0,-1
1343,BaTi4Bi4O15,mp-1227554,139,-7.3925773625,7.534344001796595,-2.6948249388368053,309.5918963075903,1.5354,20.55167808663465,20.55167808663465,2.0,1.0,-1
1344,BiSb3F20,mp-1227565,5,-4.35549826625,3.723657577758072,-2.4934965701583334,425.53151299366317,2.1272,5.620897892163849,9.004428086537201,0.0,1.0,-1
1345,Bi3PbWClO8,mp-1227566,99,-6.039026214285713,8.673704501198378,-1.8098082716614283,226.178984176686,0.7772999999999994,3.894253,14.914335999999999,2.0,1.0,-1
1346,Bi3PbWClO8,mp-1227592,99,-6.045631471428571,8.690056640434067,-1.8164135288042849,225.75338162949032,1.1080999999999994,3.883597,14.968075,2.0,1.0,-1
1347,Bi10Te2Br4O17,mp-1227641,107,-5.27879105090909,8.188957816890623,-1.523913351250001,595.479352232392,1.0073999999999996,19.37275059532252,19.37275059532252,2.0,1.0,-1
1348,Bi3Te5Pb,mp-1227656,156,-3.656267614444445,7.694452551223604,-0.2007948755555557,317.70265108239073,0.0,4.626745503890397,17.137164000000002,2.0,1.0,-1
1349,Bi13Pt3I7,mp-1227807,2,-3.7130773756521736,8.514523541056738,-0.25867487717391296,1634.4318330860833,0.06669999999999998,9.341644396179431,21.790074982771355,2.0,1.0,-1
1350,Bi12Pb2Cl6O17,mp-1227872,8,-5.240946026756757,7.707953987546724,-1.6245913054272976,733.9489904025353,1.0460999999999996,12.810382086728447,15.284801808439946,2.0,1.0,-1
1351,BaSr6Fe3Bi3O16,mp-1227908,107,-6.139593357586207,6.245527645247071,-2.38553758448276,455.58300844537285,0.0,3.81482209,31.421379242595076,2.0,1.0,-1
1352,BaBiBrO2,mp-1227937,107,-5.313881336000001,6.40457295143044,-2.1264288125,118.80197845894787,1.7589,7.58739763977617,7.58739763977617,2.0,1.0,-1
1353,BaBiClO2,mp-1227965,107,-5.430396206,5.9299307627890885,-2.3195587951520005,115.86363201347204,1.6477,7.48727852111994,7.48727852111994,2.0,1.0,-1
1354,BaFeCuPb2ClO5,mp-1228046,99,-5.596793540909092,7.137628409711412,-1.8092796463190919,182.99171903658092,0.0,3.9728339999999998,11.593928,2.0,1.0,-1
1355,AlTl2Cu3Se4,mp-1228066,115,-3.832661962,6.5698616717323945,-0.3576471909375002,238.1485929070404,0.0,3.985618,14.9919,2.0,1.0,-1
1356,Bi13Pb3Cl7O19,mp-1228274,8,-5.216359026904762,7.721342641448437,-1.6174783606326193,836.6854715804884,0.5921000000000003,15.239660477083405,15.53052081008496,2.0,1.0,-1
1357,Li5Tl2,mp-12283,166,-2.27483614,5.534063942497406,-0.2365618123809524,133.0671138568894,0.0,7.361519987988486,7.361520668537174,2.0,1.0,-1
1358,Ba2Na(SnAs)6,mp-1228433,12,-4.2706115953333335,5.499631162341678,-0.4596292328888893,440.6561191564035,0.0,7.313211821207492,9.818663897837272,2.0,1.0,-1
1359,Ba2TaCu2Pb2ClO8,mp-1228449,38,-6.42002784375,7.558488836576303,-2.2613652502037502,254.96173956726173,0.0,3.9871092703945297,16.038315,2.0,1.0,-1
1360,Ba2Ti5(Bi2O9)2,mp-1228482,139,-7.492720375862071,7.2151430363555535,-2.8272887406609204,376.9567133141861,1.3680000000000003,3.92666659,24.605168262495127,2.0,1.0,-1
1361,Ba2NbCu2Pb2ClO8,mp-1228495,38,-6.234574886875,6.941605569834926,-2.1856918302037505,256.55867279182064,0.0,4.010778205006729,15.948873,2.0,1.0,-1
1362,BaNb6Bi6Pb2O27,mp-1228615,139,-7.3825918361904765,7.744866683939416,-2.4319901998511915,599.269058374036,1.2059999999999995,3.95970478,38.32290971263376,2.0,1.0,-1
1363,AsP,mp-1228795,160,-4.95312385,4.494692209277934,0.08307828321428534,39.122453192628754,0.0,3.9485641220560166,3.94856510966009,2.0,1.0,-1
1364,AlRe,mp-1228815,129,-8.4108314025,12.276299972751705,-0.3157798950000004,57.67338655497386,0.0,3.101512,5.995543,2.0,1.0,-1
1365,Al2CrB2Mo,mp-1228929,38,-7.284200001666666,5.5749122204133785,-0.3927623847222215,66.57784594238852,0.0,3.058923,7.111043441369909,2.0,1.0,-1
1366,AlAg(PSe3)2,mp-1228964,5,-4.143295843,4.385035805906184,-0.30527860078720226,253.92872036299119,1.6424,6.430891208097678,7.386181986223803,2.0,1.0,-1
1367,AlCu(PSe3)2,mp-1228984,146,-4.240798835,4.390067296366625,-0.2761165261205349,236.8728577766096,0.9193999999999996,7.815990734674267,7.815990976621772,2.0,1.0,-1
1368,AsS,mp-1229002,29,-4.47520296734375,3.6723379452205225,-0.4091488314062506,1548.052986867814,0.6095000000000002,7.610967,18.946647,0.0,1.0,-1
1369,AgTe3,mp-1229041,123,-3.006207045,6.533483016971941,0.05940765333333343,124.70740533369036,0.0,3.135837,12.681928,2.0,1.0,-1
1370,AsBrOF8,mp-1229049,4,-3.847610645,3.0667686911959,-1.856145964615454,699.1623637267023,3.1833,8.860144,8.886532748236569,0.0,1.0,1
1371,AgW2(Br3O)2,mp-1229084,8,-4.279858183636364,5.4303970779608735,-0.7926128090151523,301.8018534505915,0.0,7.500779180498849,11.535321944111836,2.0,1.0,-1
1372,As2SeS2,mp-1229167,14,-4.2671726455000005,3.6533801376174067,-0.31514704121875,532.5775081498964,1.0273,4.308024,12.190501927441053,1.0,1.0,-1
1373,AsSClOF8,mp-1229176,4,-4.227724140833334,2.5578892540744422,-2.14472199184625,806.0941248099601,3.8097,8.624698,10.047660613191313,0.0,1.0,1
1374,Bi14Pb4Cl8O21,mp-1229189,8,-5.181831613617021,7.554322680466987,-1.5967071183474466,961.4926021020219,0.4611999999999998,15.224402387587011,19.532736991965976,2.0,1.0,-1
1375,As2Se3S3(NF3)4,mp-1229221,14,-4.78165981625,2.8939478002218046,-1.48660018292526,1760.2395119228495,1.5494,10.251951,16.524036,0.0,1.0,-1
1376,Tl2Ge2S5,mp-12307,15,-4.2550589925,4.5096154561965145,-0.7734688809027782,1052.1890049312938,2.0942,9.043679090511617,10.939245811990926,2.0,1.0,-1
1377,Mg(InS2)2,mp-1232207,2,-4.175418949642856,3.674542091119687,-1.1760465242857143,690.8721424934844,1.5106999999999997,6.844757,12.973158274937491,2.0,1.0,-1
1378,BaNaCuClO2,mp-1232325,99,-4.788126816666667,4.326178030619476,-1.9417915448488887,111.81676286445484,0.0,3.9688190000000003,7.0987899999999975,2.0,1.0,-1
1379,LiC12,mp-1232339,63,-8.667148948076923,2.1298763172640602,-0.003280389102562035,235.55981953924987,0.0,4.299389902124487,14.710718,2.0,1.0,-1
1380,Nb4SiTe4,mp-1232409,55,-7.118517758333334,5.905404000093952,-0.6292135472222221,1023.6555559139592,0.1695000000000002,4.8753,19.119416,1.0,1.0,-1
1381,LiO8,mp-1235708,1,-4.8774302144444475,1.9858474947235345,-0.3969050348148152,112.83184242189002,0.15209999999999996,4.625938326672872,6.0595924336824005,1.0,1.0,-1
1382,LiO8,mp-1235877,12,-4.8850084533333336,2.2755700205620717,-0.4044832737037041,98.46624343521879,0.0,4.343358016673044,5.091488050092232,1.0,1.0,-1
1383,LiP4(Br3O)4,mp-1236356,6,-3.836355619047618,2.5499390457387427,-0.9702676825056696,751.2859768647774,0.5152,6.248557879370327,11.20714750692044,1.0,1.0,-1
1384,SbS2NF6,mp-12368,12,-4.7369827980000005,2.7813868026944344,-1.981907401577,187.3963820599147,2.6713,5.512345550252997,6.0066256763754655,0.0,1.0,-1
1385,Be2Co(NF7)2,mp-1238119,14,-4.347551750526316,2.102140154958754,-1.794615446653684,586.0452709184,1.1763,5.664721,13.404982999999998,0.0,1.0,-1
1386,GaHg3AsSCl4,mp-1238685,186,-2.6821734805,5.0239317669754815,-0.9735086028665,608.3602347106793,2.6584,7.518125909195255,12.428279,2.0,1.0,-1
1387,BH,mp-1238837,15,-5.019582237916667,0.971241984486298,-0.06001802180999979,484.966142138472,0.0,7.119353174405804,10.828843910401748,0.0,1.0,-1
1388,CuCl2,mp-1238872,166,-3.019590453333333,3.1300151801702505,-0.8172875788399999,71.32962165709345,0.0,6.892960338468878,6.892960358212499,2.0,1.0,-1
1389,ReBiO5,mp-1239407,14,-7.270445722142857,4.903087141848356,-1.9043187451785712,643.7268905984988,2.8584,5.95635576613931,12.12681,2.0,1.0,-1
1390,NaSnN,mp-12433,186,-4.637476716666667,4.778073024549201,-0.2119112969044448,108.22633887483828,0.9333,3.3669475659297103,11.023756,2.0,1.0,-1
1391,Sr2N,mp-1245,166,-4.451432806666666,3.4930771867130925,-0.6742879085711108,89.96409806530323,0.0,7.3312671144642545,7.331267246149262,2.0,1.0,-1
1392,NaMnN,mp-1245558,186,-6.3934912200000005,3.728942331274239,-0.25054759512283553,81.87890236353907,0.0,3.035739,10.251706,2.0,1.0,-1
1393,Co2NiN2,mp-1245646,166,-7.172759384,6.852769402823862,0.0075839450480003736,49.571458487133896,0.0,2.7439877266134047,8.236027254377074,2.0,1.0,-1
1394,Sb4S3N2,mp-1245848,12,-5.0646177733333335,4.735737715596988,-0.3046267804594444,214.328138201968,0.8710000000000004,3.7032219880699833,9.200801620011324,2.0,1.0,-1
1395,NaFeN,mp-1245896,186,-6.122289943333333,3.9876979332678135,-0.2099141819044436,77.32124615248779,0.44810000000000016,3.007391745572565,9.87161,2.0,1.0,-1
1396,Mg(InN)2,mp-1245913,166,-4.910191298,6.233948738374492,-0.3084729209519999,75.10429037019088,0.9213000000000005,3.3402505585942204,8.007005644688531,2.0,1.0,-1
1397,LiSnN,mp-1245978,62,-4.866481634166667,4.943402049954949,-0.2428259977377773,187.64977192467381,0.0,3.24097661,10.2888522,2.0,1.0,-1
1398,LiSnN,mp-1245983,186,-4.935775933333333,4.965349553089297,-0.3121202969044437,93.41016753079022,1.1624,3.276733,10.045689,2.0,1.0,-1
1399,LiGeN,mp-1246087,186,-5.2563721150000005,4.198665945852752,-0.4282311452377776,74.02638552692845,0.0,3.0123849999999996,9.419459,2.0,1.0,-1
1400,Li2CuN,mp-1246596,57,-4.327506770625,3.3511176947043864,-0.3601256228866667,181.23015092281864,0.35639999999999983,4.9645547,7.019976400000001,2.0,1.0,-1
1401,NaGeN,mp-1246750,186,-4.895763056666667,4.143763837272245,-0.2657123035711108,87.86969890802185,1.4959000000000002,3.1053321542960584,10.521856,2.0,1.0,-1
1402,Ba2SrN2,mp-1247390,164,-4.855350062,4.586691294221149,-0.568876604285333,141.2973826510359,0.0,3.9305682257709247,10.560664009944922,2.0,1.0,-1
1403,Li2MnN2,mp-1247418,164,-6.3622671560000015,3.738269911158033,-0.5853678402163679,43.013405184044466,0.4918999999999998,3.0262000383214915,5.423215004423668,2.0,1.0,-1
1404,Cs2Se,mp-1247784,164,-2.711384256666667,3.29198598674261,-0.9491455160686062,173.90886750200886,1.2841,5.5049464797547305,6.6264140343414235,2.0,1.0,-1
1405,SiSe2,mp-1250007,14,-4.582422799583333,3.267144190967924,-0.4433771411458333,756.3042983075949,2.468,6.355102155438013,17.53294281,2.0,1.0,-1
1406,Ti2Te2P,mp-12527,166,-6.412740694,5.513174213539204,-0.9145663430476192,115.02860857931515,0.0,10.157333394189736,10.15733373965875,2.0,1.0,-1
1407,Sn4As3,mp-12531,166,-4.378433591428571,6.356054250269223,-0.09048464357142852,182.7739436823832,0.0,12.440768739746636,12.440768855326144,2.0,1.0,-1
1408,AlSbO3,mp-1261047,4,-6.657461419500001,4.023790304065402,-2.5351467242499988,324.76247240607887,3.8402,5.118104361396608,11.530310352659269,2.0,1.0,1
1409,Ca2Cu,mp-12614,62,-2.814743855,2.6295002496538675,-0.11127504499999988,362.9933634422954,0.0,4.149228,14.502154999999998,2.0,1.0,-1
1410,Mg2Rh,mp-12693,139,-3.94268985,4.842911429151424,-0.4210671933333335,51.95168456539732,0.0,5.4880102116788185,5.4880102116788185,2.0,1.0,-1
1411,SnBr2,mp-1272139,164,-3.207763493333333,4.018762626923353,-0.7799551816666668,115.08269153616756,0.0,4.401315000000113,6.859847,2.0,1.0,-1
1412,CoO2,mp-1272680,12,-5.7307145575,4.470409478608143,-1.1554983133333334,135.1072028850371,1.2544,2.8293944442643566,19.41917213385558,2.0,1.0,-1
1413,CoO2,mp-1272749,166,-5.738270095,3.1366399769321727,-1.1630538508333323,96.27890431279869,0.0,2.8225396490547303,7.110760289128794,2.0,1.0,-1
1414,MnO2,mp-1274793,194,-7.129332000833332,3.68663571957204,-1.8052695818717244,156.63280934760436,0.0,2.923308081072024,21.164099014249466,2.0,1.0,-1
1415,Co3TeO8,mp-1275718,12,-5.68068492375,4.6240920100658265,-1.279720085,310.55110111288053,0.6437000000000002,5.814251048869063,10.579445306510452,2.0,1.0,-1
1416,BeAu2,mp-12761,139,-3.564827243333333,15.141123901598716,-0.13576859500000005,44.1913328173075,0.0,5.520698675544881,5.520698675544881,2.0,1.0,-1
1417,MnO2,mp-1279979,166,-7.13045736,2.7966437080467568,-1.806394941038392,51.61974227681465,1.9372000000000005,7.171394350067843,7.171394738716033,2.0,1.0,-1
1418,MnOF,mp-1281811,31,-6.712596886666668,3.903756533413109,-2.330239579351724,76.51193825519415,0.15680000000000005,3.186818032459023,6.257231032960905,2.0,1.0,-1
1419,MnOF,mp-1282272,62,-6.7282694525,3.638372209653053,-2.3459121451850566,164.18549924901518,1.2908,3.2410960202314283,13.271555094888996,2.0,1.0,-1
1420,Sb8Te3,mp-12826,166,-3.9256678136363634,6.290467046902225,-0.06549393090909078,358.18520817111437,0.0,21.75575723700008,21.755757338331428,2.0,1.0,-1
1421,CoO2,mp-1283043,194,-5.737300046666667,4.221529168095507,-1.1620838025000009,143.0724499004194,0.0,2.8146425812770617,10.294817646497485,2.0,1.0,-1
1422,Fe(CO3)2,mp-1283232,2,-7.160093695277778,2.574740977674784,-1.6418095738888898,453.67988825872254,0.0,4.825246771624536,11.601387581299665,2.0,1.0,-1
1423,Sr2Co(BrO)2,mp-1286332,71,-5.139237589285714,4.835265311382591,-2.2280284008333333,585.1645175476931,2.1974,8.096131014677812,9.297625528476614,2.0,1.0,-1
1424,Co3TeO8,mp-1290856,1,-5.641522465833333,4.616465280215865,-1.2405576270833325,311.06415367778254,0.0,6.107298816059193,10.389764155209056,2.0,1.0,-1
1425,GeS,mp-12910,63,-4.58577439,4.110012712220945,-0.5377655290624999,84.60642588835198,0.7596000000000007,3.88905,5.923203016294563,2.0,1.0,-1
1426,TiCo3O8,mp-1293177,160,-6.4666193000000005,4.099598913401159,-1.6696385373611118,285.6907144623814,1.4382,5.752275451682142,8.304239292547871,2.0,1.0,-1
1427,Mn2OF4,mp-1295109,4,-6.111371635714287,3.4991614789699588,-2.5557175438914785,191.59534851622053,0.799,3.030494970213612,12.343178173094644,2.0,1.0,-1
1428,Li2Fe2Si2O7,mp-1295198,2,-6.862253856538462,2.398315762839712,-2.5651663323397442,406.7560746869036,3.4796,5.367380113401696,9.295365411956864,2.0,1.0,1
1429,O2,mp-12957,12,-4.94795546875,1.97448449124032,0.0,107.6438082346079,1.369,4.389828171850123,5.369789702272613,0.0,1.0,-1
1430,CoO2,mp-1296922,2,-5.732417760833332,4.4740578034056995,-1.1572015166666665,134.99703109462388,0.0,2.8168569393565237,19.27261295925195,2.0,1.0,-1
1431,BN,mp-13150,160,-8.7867859,2.0603228896478156,-1.470853920773333,20.002088313547414,4.4847,3.937865772931449,3.937866022371127,2.0,1.0,1
1432,Hf2Ag,mp-13155,139,-7.699021983333334,12.35497755355524,-0.11671074888888927,62.476729948940324,0.0,6.442066556220838,6.442066556220838,2.0,1.0,-1
1433,HfAg,mp-13156,129,-6.5099858025,12.035177733055539,-0.11511337583333335,79.01985142026345,0.0,3.445155,6.657615,2.0,1.0,-1
1434,Ti2Pd,mp-13164,139,-7.439620796666666,6.905202241177124,-0.44933218222222254,48.61329223171783,0.0,5.453445553022237,5.453445553022237,2.0,1.0,-1
1435,Co3TeO8,mp-1320173,15,-5.649170669166666,4.634083093395005,-1.2482058304166657,309.88155292683064,0.0,5.9014448323366535,10.668450731349985,2.0,1.0,-1
1436,Co3TeO8,mp-1320808,13,-5.64359524125,4.651981382069606,-1.242630402499999,308.6892976201787,0.7554999999999998,6.008944061663248,8.487512448029987,2.0,1.0,-1