,pretty_formula,task_id,spacegroup.number,final_energy_per_atom,density,formation_energy_per_atom,volume,band_gap,min_abc,max_abc,Dimension,Dim,is_uv
266,AgClO4,mp-1101933,11,-3.992915775,4.034353320631651,-0.4814042991544447,170.66475803201675,2.8481,4.966207,6.731999817514554,2.0,1.0,-1
267,CO2,mp-1102227,92,-7.669546658333334,1.572887760243974,-1.7635094458333331,185.84795660231262,6.4314,5.069311,7.232025,0.0,1.0,1
268,AlPS4,mp-1102285,112,-4.8692844808333335,1.928293011864785,-1.0274809543452377,320.7165918689179,2.8618,5.75862,9.671294,1.0,1.0,-1
269,HfTl2Se3,mp-1102545,11,-5.084306624166667,7.824776763054023,-0.8896017503385417,349.78915359644463,1.0100999999999996,3.9433800000000003,10.824248079897883,2.0,1.0,-1
270,NbSe2,mp-1102559,194,-6.522410289166667,6.1384160450753305,-0.8247009573958337,271.4100835560066,0.0,3.4803840355720803,25.872656,2.0,1.0,-1
271,ZrTl2S3,mp-1102830,11,-5.261758175,6.227389490701528,-1.3134288098958329,317.94686400218615,1.1704999999999997,3.8313839999999995,10.464384482871843,2.0,1.0,-1
272,AlCdCl4,mp-1102961,2,-3.3190313475,2.4872469246496407,-1.7050530980066665,375.4762886007415,2.8206,6.7543169999999995,9.745315151497822,2.0,1.0,-1
273,Sb2Br9,mp-1103073,164,-2.4484090318181817,3.261785197422843,-0.3583780009090909,490.0776105550715,0.0,7.791901934356336,9.320673,2.0,1.0,-1
274,GaHgCl4,mp-1103091,2,-2.7320863766666665,3.5626374713171223,-1.34088974759,384.1814769716201,2.8578,6.673274,9.760637554681047,0.0,1.0,-1
275,TlFe2S3,mp-1103174,63,-5.6902985175000005,5.512697683779581,-0.7368604607291681,248.36755336142662,0.0,5.148823,7.008631974086026,1.0,1.0,-1
276,SbSBr,mp-1103194,33,-3.74166926,4.309229776223346,-0.6620300443750006,360.2649713773214,1.829,4.014094999999998,10.220930000000001,1.0,1.0,-1
277,NClO,mp-1103281,14,-4.9949489125,1.7428776294329364,-0.5109527014633333,249.46649375456587,1.7027,6.1008830000000005,7.64781193778907,0.0,1.0,-1
278,Mg(BH4)2,mp-1103290,164,-4.003508609090908,1.0546575205650923,-0.28742161975393865,85.00709086871326,5.7238,4.277023621897008,5.365883,2.0,1.0,1
279,BaSnF4,mp-1103397,129,-5.334073427500001,5.027274424013648,-3.3989495574600004,219.34342841040058,3.8059,4.422544,11.21451,2.0,1.0,1
280,Bi3Te2S,mp-1103410,164,-3.8701929108333335,7.437214240521281,-0.2985771346875001,408.23756340291465,0.10160000000000036,4.378580422185254,24.587575,2.0,1.0,-1
281,Te2Ir,mp-1103512,2,-5.310502908,9.881906119996898,-0.2688254813333335,375.9160421781083,0.0,4.030139,14.460901985218243,2.0,1.0,-1
282,Y3AlC3,mp-1103810,51,-7.6525839157142865,4.323892772947657,-0.3918223057142843,253.2586023281484,0.0,3.589179,9.997305,2.0,1.0,-1
283,Sb2F13,mp-1104255,2,-3.9342739046666666,3.249423156264589,-2.1525969566980003,250.6577671314381,0.0,5.362273629168229,7.675765129170121,0.0,1.0,-1
284,C3N4,mp-1104403,187,-8.400771937142858,1.9123990483605653,0.0978324700685716,159.86977195922654,0.8470000000000002,3.619417,7.141649718596188,2.0,1.0,-1
285,H6W,mp-1104418,12,-4.541051782142857,6.1051674434599175,0.08702628046857137,103.29474085833792,0.0,6.006663076101072,7.0816032562568765,2.0,1.0,-1
286,V2O5,mp-1104615,2,-7.400644928571429,2.1056565716161253,-2.2531964308928574,286.86429639511795,2.4322,6.2899,7.363815405943714,2.0,1.0,-1
287,Os(SeBr6)2,mp-1104676,12,-2.662728276666667,3.895381089063119,-0.13857655097916674,557.1524811940935,0.0875,7.015340708981781,9.390317434157858,0.0,1.0,-1
288,TlHgCl3,mp-1105094,62,-2.419136579,5.614203030128577,-1.133759323956,604.9565757474827,2.6787,4.491792,14.158435999999998,1.0,1.0,-1
289,As2O3,mp-1105118,4,-6.0293473460000016,3.7543488998411783,-1.6183007027499996,350.01901256938044,3.4624,4.612469,8.923448274352744,2.0,1.0,1
290,TlSb(PSe3)2,mp-1105142,4,-4.032832977,4.93109438706108,-0.20356349612053606,580.4540941615821,1.5530000000000002,7.04,10.197093411256565,1.0,1.0,-1
291,TlCu2(SeO5)2,mp-1105161,12,-4.955973539333333,4.547650567326445,-0.9554039418124992,237.11942817892867,0.10249999999999998,5.837581563464445,8.862565200194581,2.0,1.0,-1
292,SnBr2,mp-1105170,176,-3.198944881111111,4.584559007304661,-0.7711365694444446,605.2796166624597,2.4179000000000004,4.383655,12.626835354447449,1.0,1.0,-1
293,Ba3Rh(CN)3,mp-1105268,176,-7.1599476985,4.462035355684541,-0.694049796214,441.32231009539635,0.6682999999999999,5.900908,9.29294126570108,0.0,1.0,-1
294,TlSb(PS3)2,mp-1105300,4,-4.518456801,3.649754023201909,-0.7029402865892855,528.2060541814405,2.1806,6.7876179999999975,9.878807850403053,1.0,1.0,-1
295,NbAlBr8,mp-1105368,63,-3.674872755,3.25242382743203,-0.9806434359999996,775.1439221651411,1.534,9.181731,10.375283046987633,0.0,1.0,-1
296,TlIn(PS3)2,mp-1105440,4,-4.4057141665,3.3994207292058207,-0.7279294030892863,560.3211248796022,1.6284,6.705216,9.300977,2.0,1.0,-1
297,SbPbF7,mp-1105453,2,-4.699981061666667,5.659563881602508,-2.723814478703334,271.0753275031026,4.0524,4.8426919999999996,7.883744042807263,1.0,1.0,1
298,HgAs2H2F14,mp-1105456,2,-4.114079597894737,4.038690886541405,-2.2199168415210533,254.27094204758686,3.325,5.032787,7.842687609651492,2.0,1.0,1
299,Ni8Bi8SI,mp-1105564,75,-4.756033010555557,9.352676617052447,-0.18056798822916734,408.4218441177902,0.0,4.210371,9.849049,1.0,1.0,-1
300,Y3Co,mp-1105598,62,-6.7711373775,5.148898383530766,-0.1442045937499996,420.0943532850076,0.0,6.314404,9.482838000000001,2.0,1.0,-1
301,Y3Ni,mp-1105633,62,-6.534222859375,5.094566393129406,-0.2393353543750001,424.26189275158094,0.0,6.366739,9.703759,2.0,1.0,-1
302,Te6IrCl3,mp-1105647,167,-3.6921258665000014,5.532925305557262,-0.5461469734780003,638.7600497564075,1.2223000000000006,9.224073136488297,9.224073375350011,1.0,1.0,-1
303,Tl2Hg3Se4,mp-1105692,15,-2.438749861111111,8.028622955561254,-0.2589728649305556,548.6619993279063,1.3491000000000002,7.200768173106602,13.869942660006926,2.0,1.0,-1
304,TiGeS3,mp-1105715,62,-5.865383755,3.3578556484942075,-1.2778858605416663,428.6570650786854,0.3554000000000004,3.50525,13.422029,1.0,1.0,-1
305,Sr3Hg,mp-1105844,62,-1.619633973125,4.315155700064094,-0.276602941875,713.3710891630998,0.0,7.5163449999999985,11.244114,2.0,1.0,-1
306,Ba3Ir(CN)3,mp-1106080,176,-7.344037955500001,5.143294141168917,-0.7307277982140008,440.5359986034897,0.7083000000000004,5.850409,9.324644359187381,0.0,1.0,-1
307,KCO3,mp-1106094,14,-6.439513538999997,1.8783703459986008,-1.82467832835,350.4556547795118,0.8757999999999999,4.005711,15.328731218885697,2.0,1.0,-1
308,Bi4Te2Br2O9,mp-1106129,99,-5.2187741723529415,7.603883365805807,-1.49338703125,304.6241002935588,1.7886999999999995,5.570488,9.816977,2.0,1.0,-1
309,BiI3,mp-1106279,14,-2.57746235375,4.413745831021496,-0.4619443150000002,887.4182123990354,2.3476000000000004,8.031667,13.276311999999999,2.0,1.0,-1
310,MnPbO3,mp-1106337,13,-6.4246951339999985,6.675021473471322,-1.6385951748730334,308.609254869293,0.0,5.0665830000000005,10.3607166236494,2.0,1.0,-1
311,HgS4,mp-1106367,57,-3.1550351195,1.4036923204144205,-0.31590715299999983,1556.0910724087769,1.0475,9.689377,13.192519,0.0,1.0,-1
312,PtSe2,mp-1115,164,-4.741593993333333,7.821289821454455,-0.3873504382291664,74.94632548433812,0.6743000000000001,3.7610245817586727,6.117971,2.0,1.0,-1
313,W(BrO)2,mp-1119334,51,-5.389772827000001,4.66985627559466,-1.3153107295000013,267.15005765947046,0.7721,3.851512,9.006578999999997,2.0,1.0,-1
314,PdSe2,mp-1120759,14,-4.32524793,1.2819232067533572,-0.2680130082291659,684.8255723160453,1.3764999999999996,5.751231,20.19171232234812,2.0,1.0,-1
315,AuCl,mp-1120780,138,-2.77050974125,6.550235411724423,-0.5066434828799999,235.681162528008,2.2435,4.395894,12.196366000000001,1.0,1.0,-1
316,CoCl2,mp-1120788,164,-4.173842093333334,1.2056587508952978,-0.9685021771733334,178.82593686919532,0.10970000000000013,3.5276773380349,16.592893,2.0,1.0,-1
317,Ti2ZnSn2O7,mp-1120808,15,-7.0976614412500005,4.168323621927537,-2.531867305034724,406.78359460217285,2.8756,6.89701267896892,9.266562967347982,2.0,1.0,-1
318,Al12W,mp-11227,204,-4.535189833846154,3.857812653895915,-0.08095626230769262,218.496947543528,0.0,6.571871881735978,6.571871881735978,0.0,1.0,-1
319,ZrAg,mp-11239,129,-5.811434515,8.085385116477651,-0.12130619833333345,81.77727373346553,0.0,3.4994370000000004,6.677844,2.0,1.0,-1
320,TaSe2,mp-11324,164,-7.070948283333332,7.779772171096305,-0.7877480882291662,72.3290272235088,0.0,3.499031479817808,6.8216,2.0,1.0,-1
321,Tl3SiF7,mp-1133284,36,-4.81560932,6.552774483006169,-2.7743253293936365,392.392434971578,3.5791000000000004,6.973125,8.063756711979908,1.0,1.0,1
322,GaSe,mp-11342,160,-3.8510415775,4.4140862434427515,-0.5890380874218755,111.86638249583618,1.362,9.13031128631713,9.130312021412903,2.0,1.0,-1
323,Hf2Pd,mp-11454,139,-8.891472353333333,13.114808879079312,-0.5267191833333329,58.67365743239561,0.0,5.878775265124786,5.878775265124786,2.0,1.0,-1
324,CuPb2(ClO)2,mp-1147595,139,-4.545780444285714,7.354409701592712,-1.3281327727171433,131.1492675009634,0.0,8.634393557132197,8.634393557132197,2.0,1.0,-1
325,CuSCl,mp-1147671,11,-3.594855936666667,3.220507744124042,-0.6528400987950008,810.9412906903905,0.0,7.900034,11.670241,1.0,1.0,-1
326,CuS2,mp-1147712,61,-4.181645895833333,3.827484809412397,-0.4999170945833331,221.5668998563784,0.0,5.563211,7.0312740000000025,2.0,1.0,-1
327,P2S3,mp-1147714,14,-4.7945785025,2.0198127886321537,-0.5454702378035712,520.0518397956392,2.3961,4.630986,11.635147730881028,2.0,1.0,-1
328,CoS,mp-1147746,129,-6.0429653625,4.420718991746983,-0.7523115315625013,68.36266139950712,0.0,3.6330139999999997,5.179464,2.0,1.0,-1
329,CF4,mp-1167,15,-5.188190706,1.9848881666589264,-2.2063944589520004,147.2471869079337,9.0652,4.900764481235249,8.703582935234202,0.0,1.0,1
330,NbTe2,mp-11675,12,-5.923721804444442,7.094396080281276,-0.4610861711111112,244.436976783422,0.0,7.6982840516445625,9.54795852701576,2.0,1.0,-1
331,HfTe5,mp-1168,63,-4.726569531666667,6.1321946008436194,-0.447620615,442.19521092879586,0.0,8.179310138330372,13.839638,1.0,1.0,-1
332,VTe2,mp-11687,12,-5.449961185555555,6.646573513638248,-0.3264585422222221,229.45353103267828,0.0,7.6256195768611486,9.366105822696325,2.0,1.0,-1
333,TePt,mp-11693,166,-4.952367165,11.163522065945369,-0.3452628449999997,95.99647584364378,0.0,7.247262554454751,7.247262719023576,2.0,1.0,-1
334,SnS2,mp-1170,164,-4.46890474,3.6700886813816402,-0.8170542104166666,82.72632878801336,1.5615,3.6999202494411962,6.977958999999999,2.0,1.0,-1
335,CO2,mp-11725,136,-7.679353688333332,1.4340794605797522,-1.773316475833333,101.91833306362119,6.4419,3.81779,5.1667819999999995,0.0,1.0,1
336,Nb15IrS32,mp-1173016,12,-7.0315502612500005,4.300715292475536,-1.3754318912500014,1008.4717474103816,0.0,8.952297941410182,13.996935956182165,2.0,1.0,-1
337,Nb3IrSe8,mp-1173033,15,-6.297741747500001,6.407511412449713,-0.7052719673958331,571.497125194723,0.0,6.953937396831381,14.878247004859276,2.0,1.0,-1
338,Sr2MnBiPbO6,mp-1173263,3,-6.2945659793181825,6.766599119464753,-2.300339341268045,728.7023804063019,0.08989999999999965,7.728270749219776,12.511921890430903,2.0,1.0,-1
339,P2H24AuC8I,mp-1173391,63,-4.921472978333333,1.774640476846571,-0.2772398852506339,947.110211793352,3.1233,7.856265,11.754472790566235,0.0,1.0,1
340,Re3Se2Cl5,mp-1173448,1,-5.9560308935,5.29694575282978,-0.8965649540987499,1120.796662996654,0.9676999999999998,9.480977000000001,12.653898618656662,0.0,1.0,-1
341,Os(OF2)2,mp-1173465,169,-5.469418118809523,3.21020796904727,-1.840722986989524,925.5661410691984,2.0344,9.523586509979998,11.783539999999999,0.0,1.0,-1
342,Nb9IrS20,mp-1173506,2,-6.99202507,4.303069722124107,-1.3516926327499996,644.3213291798787,0.0,6.819217,11.00042567337219,2.0,1.0,-1
343,Nb24Ge7Te48,mp-1173636,8,-5.834857291518987,6.668785984162228,-0.446617284113924,2206.9103400952176,0.0,13.355250897257905,15.851472529016256,2.0,1.0,-1
344,N2,mp-1176403,62,-7.2996997275,1.6531116117352054,8.881784197001252e-16,56.27852923912989,0.0,2.17446,7.727432,1.0,1.0,-1
345,Mn5VO12,mp-1176451,12,-7.202910046666667,4.038089110022815,-1.8832337526708816,212.8570524754744,1.1036,5.101286448077387,9.500762925255266,2.0,1.0,-1
346,Mn5CrO12,mp-1176453,12,-7.14469915,4.166735024392419,-1.8117927782264367,206.7054768422657,0.8603999999999998,5.0614873122662285,9.3444891354188,2.0,1.0,-1
347,LiVF6,mp-1176528,163,-5.168470635625,2.5700890815206594,-2.939204418184167,222.09478953415882,3.3869,5.242722487590012,9.330266,2.0,1.0,1
348,LiVF4,mp-1176530,15,-5.659991988333334,2.9216450218777594,-3.1611537430155567,152.17900444734414,2.3217,5.517576914627835,10.331506696395113,2.0,1.0,-1
349,LiV3OF11,mp-1176563,1,-5.6922823334375,2.848538605064796,-2.943134957354584,448.5724572831005,0.0,5.304437,15.65686853132752,2.0,1.0,-1
350,LiV3OF11,mp-1176567,2,-5.72220002125,2.923749065993523,-2.973052645167084,437.0333886042604,0.0,5.248759,15.675485977077903,2.0,1.0,-1
351,Mn3NiO8,mp-1176568,166,-6.481068003333332,4.3337369336570255,-1.47906555432046,134.68376886266262,0.5255000000000001,5.677713727318152,5.677714105025897,2.0,1.0,-1
352,LiSbS,mp-1176579,29,-4.09826917,3.7696545170792013,-0.9279645121527782,283.27075849683945,0.4000999999999997,6.220333999999999,7.298653999999999,2.0,1.0,-1
353,LiV3OF11,mp-1176596,2,-5.7056876315625,2.9485849223243217,-2.956540255479584,433.35226740983285,0.0434,5.2399629999999995,15.427578127728214,2.0,1.0,-1
354,Mn3FeO8,mp-1176616,166,-6.861722385833333,4.066592419564109,-1.682981086820459,142.36837240477638,0.0,5.827275147524269,5.827275321663206,2.0,1.0,-1
355,LiFeF4,mp-1176695,12,-5.076608271666667,2.943079817521945,-2.8552538913488887,78.3019771771117,3.3067,5.474680830362625,5.5972776321540465,2.0,1.0,1
356,KLiSnO2,mp-1178142,12,-4.922295994000001,3.4905629549806223,-1.8182510727666668,187.19496570783787,2.0381,7.113843455184053,10.002576109343034,2.0,1.0,-1
357,HgPtO2,mp-1178176,12,-4.4002051,10.439883698180164,-0.6837253468749998,68.02445435728386,0.0,3.2041493915175057,7.679500251358353,2.0,1.0,-1
358,CuAsO3,mp-1178368,51,-5.585629841,4.353167165920575,-1.2865655447499995,142.25676785804902,0.07810000000000006,3.2143669999999998,8.974302999999997,2.0,1.0,-1
359,CuCO3,mp-1178374,2,-6.575852127,3.4270179129117286,-1.3632553717500002,119.7354338574424,0.0,4.3579989999999995,6.510791549635957,2.0,1.0,-1
360,CsLiO,mp-1178393,62,-3.921694398333333,4.221117612319064,-1.571697495838123,245.23185489288528,0.0,3.650063,9.79147,2.0,1.0,-1
361,Cr(NO3)5,mp-1178448,154,-6.224069608253968,1.7837386810077185,-0.9341938730468248,1011.0494697704613,0.0,9.885878,10.867089995486417,0.0,1.0,-1
362,BiCO3,mp-1178485,2,-6.793338792999999,5.760646941280607,-1.6225765097499996,310.1507491782457,1.4107999999999996,5.213685,8.634501891444867,1.0,1.0,-1
363,Bi5O7F,mp-1178487,12,-5.591944898461539,7.72329759795829,-1.700377208841539,505.64452784945183,2.6374,9.723709881922074,13.472133486433172,1.0,1.0,-1
364,AgClO3,mp-1178561,160,-3.847584518,4.1342602849418615,-0.482903840735333,76.84405818753126,2.8464,4.324920984832439,4.324921442343316,2.0,1.0,-1
365,AgBrO3,mp-1178562,160,-3.737589242,4.572963514409799,-0.2962934520833329,85.61318250500794,2.5145,4.464877382137273,4.464877802851609,2.0,1.0,-1
366,AgGeO3,mp-1178571,55,-5.3851338910000015,5.014545624641301,-1.3466178380833334,1210.6981013108827,0.0,9.273411,12.646994,2.0,1.0,-1
367,VS2,mp-1178763,12,-6.632817366666668,1.9543855441498736,-1.2895220987500011,97.77022848650822,0.0,3.192146514586228,11.348190893711164,2.0,1.0,-1
368,TlPO4,mp-1178940,14,-6.131100304583334,6.382995475689633,-2.0048335185119046,311.50898534273625,0.5939999999999999,4.568817,14.595676875039713,2.0,1.0,-1
369,TlAsO4,mp-1178948,14,-5.394168039166666,6.8523496780301825,-1.393595829166666,332.77181679106684,0.2591999999999999,4.801865,14.381771550711438,2.0,1.0,-1
370,Ti3(BiO3)4,mp-1179025,12,-7.266701019999997,7.750047518997612,-2.5196168665789465,251.01098852038203,1.5530000000000002,3.8646943757200254,16.978874726609238,2.0,1.0,-1
371,SrO10,mp-1179224,124,-5.043828470909091,2.7193363750756663,-0.5248070217424243,302.4066637770411,0.0,5.801815,8.983872999999997,1.0,1.0,-1
372,SrO10,mp-1179236,124,-5.0414625754545455,2.231334748597283,-0.522441126287879,368.5441825307242,0.1521,5.849746,10.769996,2.0,1.0,-1
373,SnSe,mp-1179336,62,-4.16876531875,5.9546259372120725,-0.4160236524218752,220.493284216944,0.30630000000000024,4.278873,11.985858,2.0,1.0,-1
374,SiSe2,mp-1179443,72,-4.584303001666666,3.0534565707643964,-0.4452573432291664,202.308034972408,2.0597,6.635837089026599,6.635837089026599,1.0,1.0,-1
375,SbF6,mp-1179597,19,-4.022963759642857,3.0972957342958707,-2.2154920392342854,1011.1343949864647,0.02839999999999998,7.643306,12.736035000000001,0.0,1.0,-1
376,Re2Cl5O4,mp-1179677,1,-5.960194161818182,3.0482327039597115,-1.5837422410272737,334.30320698105413,0.7633,5.98084,9.240079040737367,0.0,1.0,-1
377,RbMnAs,mp-1179693,129,-5.176329081666666,3.6410855804364832,-0.2425427657183915,196.40276320602143,0.0,4.208337,11.089872999999999,2.0,1.0,-1
378,RhSCl5,mp-1179727,15,-3.3966641271428566,2.756336906850699,-0.9528708956321432,2257.253434182464,1.5419,13.906722178956661,27.499011848134842,0.0,1.0,-1
379,O2,mp-1180036,13,-4.9179869125,2.4395503263764504,0.029968556250000056,43.561517800900404,0.6698999999999999,3.117047,3.8922577202088,0.0,1.0,-1
380,NiS2,mp-1180046,14,-4.941170573333333,3.8178815791291134,-0.69913176875,106.84095342693243,0.18730000000000047,4.190608,5.343015400566613,2.0,1.0,-1
381,NaBH4,mp-1180167,62,-3.869221586666667,0.9206714013911134,-0.3770564811633334,272.94165002977246,5.6404999999999985,5.106726999999999,8.67184,2.0,1.0,1
382,NF2,mp-1180208,1,-3.9154246975,1.5849367075999017,-0.3175672124200002,217.93640985992508,1.8965,3.379511,8.441768837991301,0.0,1.0,-1
383,MoO3,mp-1180216,63,-6.98107693625,4.464308043222943,-1.9681670771875,107.07818634465497,0.474,3.794544,7.63424700393811,2.0,1.0,-1
384,NClO3,mp-1180300,8,-5.01861604,1.73509610574965,-0.6299521258779996,93.27013631263736,2.0356,3.997316303971203,5.034395635748645,0.0,1.0,-1
385,Mg(BrO3)2,mp-1180378,12,-4.281598543333334,2.9829390861289315,-0.9095845497222226,155.93097552169775,3.9449,5.7023017271501875,6.269692391248713,2.0,1.0,1
386,NaSeO3,mp-1180453,15,-5.021289466000001,2.4874612212149927,-1.5117774458854172,800.7986900801808,3.0887,10.878386336700173,11.806378554402276,2.0,1.0,1
387,LiAlH4,mp-1180547,15,-3.3346931891666665,1.163243103888017,-0.23245229880222185,108.36014477119812,3.9431,4.518622708522698,6.117182240733148,2.0,1.0,1
388,HgNO4,mp-1181039,14,-4.859794049583333,4.0296863506232485,-0.6533249783133327,459.208661548093,0.22129999999999986,6.875406,10.18840988056257,1.0,1.0,-1
389,Hg2ClO,mp-1181119,15,-2.24432777125,6.958708225805693,-0.7176084773774999,432.04213116545463,2.1229,7.2732937730066975,9.74592432531589,1.0,1.0,-1
390,H2,mp-1181188,19,-3.38842260125,0.03593703935465495,4.440892098500626e-16,372.59023600050796,9.7306,7.177739,7.215497,0.0,1.0,1
391,H2,mp-1181189,62,-3.38905345625,0.1029062549219012,4.440892098500626e-16,260.2327717488576,8.1932,4.3726389999999995,9.854266,0.0,1.0,1
392,H3CI,mp-1181198,62,-4.284065138,2.6612534006963458,-0.1900644781719997,354.2619998637851,3.5866,4.775167,10.250821,0.0,1.0,1
393,H2,mp-1181265,62,-2.199811893125,0.07474308556607644,4.440892098500626e-16,358.28839210747384,1.5177999999999998,6.061511,9.083183,0.0,1.0,-1
394,Hg4N3O10,mp-1181617,41,-4.725465795147058,5.295318145916155,-0.7531838710082359,1259.831711390149,0.0,11.445963269352653,11.71058,0.0,1.0,-1
395,CuClO,mp-1181633,33,-4.014954268125,3.2455313938466235,-0.8153798962949997,941.4018852310887,0.0948,6.685727,12.831709,2.0,1.0,-1
396,CdCl2,mp-1181940,115,-2.579479816666667,3.1393717209142817,-1.4359492455066671,96.96368163221523,3.1363,4.118125,5.717551,2.0,1.0,1
397,CO2,mp-1182086,33,-7.6683962725,1.2641853630608666,-1.7623590599999992,231.2303122212756,6.4503,3.7668169999999996,10.994667,0.0,1.0,1
398,BePbF4,mp-1182129,62,-5.308960514583333,5.237678225331933,-3.1199171028766663,370.56047880570407,5.4226,5.445741,9.236222999999999,2.0,1.0,1
399,CaO10,mp-1182183,124,-5.058377730909091,2.126432633932468,-0.5106182247727276,312.47392165760584,0.0,5.490377,10.365958000000001,2.0,1.0,-1