,pretty_formula,task_id,spacegroup.number,final_energy_per_atom,density,formation_energy_per_atom,volume,band_gap,min_abc,max_abc,Dimension,Dim,is_uv
1571,TiCu,mp-2078,129,-6.133154735,6.440936363493999,-0.1358053916666666,57.4468147444159,0.0,3.117007,5.912762,2.0,1.0,-1
1572,Ga2FeS4,mp-20793,164,-4.959889638571427,3.7340234342368217,-0.9001534453571435,143.88476264271392,0.44010000000000016,3.658946704013328,12.410008,2.0,1.0,-1
1573,SnPbF4,mp-20815,129,-4.847618543333334,6.309453431939392,-2.613548633293333,211.54816570440784,3.4455,4.3684709999999995,11.085374,2.0,1.0,1
1574,CuTe,mp-20826,59,-3.6872353225,6.896081538150362,-0.0659815225,92.05384207491741,0.0,3.195561,7.128867999999999,2.0,1.0,-1
1575,PbO,mp-20878,57,-5.43691616625,8.739853328560285,-1.4577598968749994,169.62816624417385,2.2292000000000005,4.816821,6.147622,2.0,1.0,-1
1576,ZrTe3,mp-2089,11,-5.21104454625,6.4301127203565445,-0.7166436912499998,244.82786064203003,0.0,3.9500309999999996,10.427139084175726,2.0,1.0,-1
1577,InAg(PSe3)2,mp-20902,163,-3.9606617214999997,4.616860577266933,-0.22203368928720266,545.5405834723116,0.6940000000000004,6.588718721943213,14.510906,2.0,1.0,-1
1578,SnO,mp-2097,129,-5.7649688325,5.942455446379406,-1.637350170625,75.28545173175344,0.6296999999999997,3.870595,5.025226,2.0,1.0,-1
1579,CaMnSi,mp-21096,129,-5.89365659,3.3624058205433967,-0.3627831332183919,121.5884908254665,0.0,3.921729,7.905645,2.0,1.0,-1
1580,V2PbO6,mp-21126,12,-7.1050555327777785,4.870970149364439,-2.21722753027778,276.18735001390024,2.2575000000000003,3.71437716,9.672694935527486,2.0,1.0,-1
1581,PbSO3,mp-21190,11,-5.841994124,6.19443377816386,-1.857467455375,154.01303269333644,3.2251000000000003,4.565639,6.50796169978965,2.0,1.0,1
1582,TeO2,mp-2125,61,-5.383108645416668,5.362720571749759,-1.5048980229166666,395.35163368918,2.2370000000000005,5.599178,12.284664,2.0,1.0,-1
1583,FeTe,mp-21273,129,-5.86570214,6.996625048410066,-0.05905023499999995,87.07557914416442,0.0,3.6560099999999998,6.514508,2.0,1.0,-1
1584,Sn4Pd,mp-2128,68,-4.480464811,7.732657088109309,-0.2368309650000001,249.64379691325885,0.0,6.529884,6.6866336342108665,2.0,1.0,-1
1585,PtPb4,mp-21296,125,-4.3094684280000015,11.9683093773928,-0.1251692300000002,284.1168836892232,0.0,6.144727,6.799817,2.0,1.0,-1
1586,CuGeO3,mp-21344,51,-5.890997551,4.803721242831788,-1.59915136475,127.33672254894309,0.0,2.965634,8.747894,2.0,1.0,-1
1587,InSbS3,mp-21365,62,-4.2561893155,4.405657292642169,-0.7962584013749996,501.7027245696506,1.5012,3.892727,13.508013,2.0,1.0,-1
1588,InSe,mp-21405,12,-3.5973967325,5.3901462787971,-0.473599128671875,119.39413982635901,1.0755000000000003,5.230588162508687,6.20754262879225,1.0,1.0,-1
1589,Zn(InS2)2,mp-21409,164,-3.8757220221428565,3.962928269946509,-0.9249976596428569,354.74499748974813,0.00010000000000021103,3.923560817595415,26.608769,2.0,1.0,-1
1590,RbMnP,mp-21413,129,-5.57410489,3.37070170241512,-0.3889294219088673,168.85655140480117,0.0,3.838382,11.460974,2.0,1.0,-1
1591,TiS2,mp-2156,164,-6.662276393333332,2.8652899891541117,-1.715119143194445,64.90630775452632,0.0,3.4169979370567383,6.418992,2.0,1.0,-1
1592,Sb2Se3,mp-2160,62,-4.0046803760000005,5.341825109233409,-0.2555329934062499,597.3411343742918,0.8567000000000005,4.029937,12.842946000000001,2.0,1.0,-1
1593,SnSe,mp-2168,63,-4.1706689475,5.924579875502123,-0.4179272811718753,110.80574967081628,0.6097999999999999,4.300997,6.377497487066225,2.0,1.0,-1
1594,P2O5,mp-2173,62,-7.023853649642858,2.677080584136963,-2.4445823544132645,352.1812959813127,4.856400000000002,4.940328,9.650205999999999,2.0,1.0,1
1595,TlF,mp-2175,225,-3.837006635,8.090510190687077,-1.945905078095,45.84804124642541,2.3992,4.017401721467247,4.017401721467247,0.0,1.0,-1
1596,As2O3,mp-2184,227,-6.039927479,3.295395903187349,-1.6288808357499989,398.76650131546893,4.0275,8.261861087227745,8.261861087227745,0.0,1.0,1
1597,F2,mp-21848,223,-1.1505827525,2.840784487651501,0.0,88.84191209506102,0.0,4.4621,4.4621,0.0,1.0,-1
1598,PbS2O3,mp-21904,61,-5.5365700093750005,4.981053519142165,-1.6372994743750002,851.6382313569337,3.4725000000000006,7.077002,16.435085,2.0,1.0,1
1599,Te3(PbO4)2,mp-21922,63,-5.475380222948719,6.5940760637698,-1.566109401410257,1397.9117853419104,3.0002,10.68551475423889,19.237159,2.0,1.0,1
1600,TiSe2,mp-2194,164,-6.0741166200000025,4.69257943971707,-1.1116782960069451,72.8207923357004,0.0,3.5442620609094355,6.6938059999999995,2.0,1.0,-1
1601,VMoO5,mp-22006,85,-7.338065859285713,3.5841193448776267,-2.2030835101785726,210.227716418004,1.7999999999999998,4.654615000000106,6.720524000000595,2.0,1.0,-1
1602,PbSe,mp-22009,42,-4.091367965,4.062929403870794,-0.4870886911718748,233.9099758147641,1.3139,4.41488995946275,12.401111415262948,2.0,1.0,-1
1603,Pb3SO6,mp-22023,11,-5.840274375,7.105224799799348,-1.8317819860624995,350.4018736908094,2.9588,5.88815,8.330411377136485,2.0,1.0,-1
1604,In(TeMo)3,mp-22061,176,-6.6227472292857135,7.0661243873617385,-0.2343878564285719,369.1558234454277,0.24109999999999945,4.6222910000000015,9.603087859030554,1.0,1.0,-1
1605,NbSe2,mp-2207,194,-6.5379107633333335,5.7424276206556835,-0.8402014315625005,145.06303968923132,0.0,3.48940356000105,13.756998999999999,2.0,1.0,-1
1606,SiSe2,mp-22142,140,-4.58620471,2.560449165329134,-0.4471590515624999,241.26188758976002,2.2369,7.035830531447443,7.035830531447443,1.0,1.0,-1
1607,Zr2Ag,mp-2221,139,-6.748477826666666,7.428326790577843,-0.10582540555555536,64.89770918241443,0.0,6.520661748011394,6.520661748011394,2.0,1.0,-1
1608,TlInSe2,mp-22232,140,-3.54712793375,6.651771153359162,-0.520838017421875,238.2158194834697,1.1351,6.803928101522533,6.803928101522533,1.0,1.0,-1
1609,Zn(InS2)2,mp-22253,156,-3.8921070885714286,4.16286119709467,-0.9413827260714284,168.85369372336712,0.10740000000000016,3.923707302821657,12.66446,2.0,1.0,-1
1610,SnS,mp-2231,62,-4.5106891375,4.9001342636386935,-0.7694082765625003,204.37625934004453,1.1111000000000004,4.0239720000000005,11.432652000000001,2.0,1.0,-1
1611,TlVO3,mp-22330,57,-6.5163180305,5.649783367499943,-2.01620693925,356.60106488025747,3.0073,5.305669,11.351662,1.0,1.0,1
1612,WS2,mp-224,194,-7.895419978333333,6.576662734574941,-1.2607179104166673,125.21970153040388,1.5656999999999996,3.1907306611089887,14.202402,2.0,1.0,-1
1613,GeS,mp-2242,62,-4.62989638375,3.954535749023096,-0.5818875228125,175.86564290010932,1.237,3.6658809999999997,10.769622,2.0,1.0,-1
1614,InCu(PSe3)2,mp-22449,163,-4.0593702595000005,4.705245794747616,-0.19407716062053595,504.00923295961474,0.20869999999999989,6.450033740821673,13.98891,2.0,1.0,-1
1615,Pb3SO6,mp-22577,63,-5.82199545,6.420776911719222,-1.8135030610624998,387.75433519577973,2.9131,6.0318309999999995,8.078921694148049,2.0,1.0,-1
1616,OsF6,mp-22626,62,-4.8834290385714265,4.496786204188197,-2.061909716734285,449.36082615493325,0.0,5.160769999999999,9.77993,0.0,1.0,-1
1617,InAg(PS3)2,mp-22661,163,-4.43574074,3.2493498500813724,-0.7108656742559532,487.5538590448666,1.2268,6.259189526185799,14.369966,2.0,1.0,-1
1618,InSe,mp-22691,160,-3.6302451725,4.9442240844145395,-0.506447568671875,130.16236066724198,0.8635000000000002,9.269798122883367,9.269798130465679,2.0,1.0,-1
1619,Te2W,mp-22693,31,-6.52078067,8.523376397963197,-0.10587122666666578,342.13815641148074,0.0,3.4979410000000004,15.431851000000002,2.0,1.0,-1
1620,Pb(CO2)2,mp-22747,2,-7.210636708571428,4.899593217119712,-1.6179409449999995,200.1075032064678,2.8117,5.728829,7.127213271368411,2.0,1.0,-1
1621,P2Pb3O8,mp-22750,166,-6.611416644615384,7.344013687391832,-2.309121515164835,183.49617181821603,3.1976,7.560208853367015,7.560209370702507,2.0,1.0,1
1622,TlInTe2,mp-22791,140,-3.2133990625,6.877458588185832,-0.3634144200000001,277.374494175596,0.6498999999999997,7.1603578797994425,7.1603578797994425,1.0,1.0,-1
1623,Te2Rh,mp-228,164,-4.942308643333333,7.928542416055047,-0.3920053999999998,75.00094487861759,0.0,3.9624460890932007,5.515811,2.0,1.0,-1
1624,TaTe4,mp-22817,124,-5.136412183,7.549772152970992,-0.25021591300000023,304.1178303372567,0.0,6.620744999999999,6.937902,1.0,1.0,-1
1625,AgF2,mp-2284,61,-3.341256153333333,5.315183658579106,-1.4500373963488886,182.28122084632503,0.0,5.327483,5.968428,2.0,1.0,-1
1626,Cl2,mp-22848,64,-1.84815707,1.6344098612381623,0.0,144.07913932572936,2.5794,4.407455243636627,8.260659,0.0,1.0,-1
1627,BiI3,mp-22849,148,-2.59764105875,4.78714895533529,-0.48212302,409.0992855970632,2.5587,8.926338614969186,8.926338796465268,2.0,1.0,-1
1628,Te2Ir,mp-2285,164,-5.314402546666667,9.731602000803797,-0.2727251200000005,76.34440943018494,0.0,3.98783798772242,5.5433410000000025,2.0,1.0,-1
1629,RuCl3,mp-22850,193,-4.24812507375,3.2372341412476064,-0.9891394274449999,212.80138724412757,0.0,5.708643,6.560779871273232,1.0,1.0,-1
1630,MoCl3,mp-22853,12,-4.87826165125,3.2113531964883264,-1.2264626611949998,209.21111573865747,0.1458999999999997,5.920124594187947,6.959779929928317,2.0,1.0,-1
1631,HgCl2,mp-22855,62,-1.9341137158333328,4.602845244468777,-0.99698627634,391.78350822669444,3.1737,4.36734,13.584397000000001,0.0,1.0,1
1632,Bi2S3,mp-22856,62,-4.3800380255,6.478231082781669,-0.7402303813749995,527.1660002917807,1.5027,4.021421,11.735325,2.0,1.0,-1
1633,TlI,mp-22858,63,-2.60119896,6.546835313052712,-0.6583661625000001,168.05563545336312,2.3197999999999994,5.307803,7.087255621808557,2.0,1.0,-1
1634,HgI,mp-22859,139,-1.1709067075,6.8375526799081765,-0.2570602175,159.06783815456168,1.8859,6.951978077166313,6.951978077166313,0.0,1.0,-1
1635,CuI,mp-22863,129,-2.952523485,5.702227449972957,-0.14091384249999986,110.92172259415258,1.5715999999999992,4.113231,6.556172999999999,2.0,1.0,-1
1636,ClO3,mp-22869,9,-3.9970638875,2.121033132541825,-0.4993520417524993,261.3329808546352,1.2097,5.3846069018505895,10.286096954559053,0.0,1.0,-1
1637,InBr,mp-22870,63,-2.865871465,4.737182879210383,-0.6715663300000001,136.51298519443338,1.6191,4.692583,6.7171426483309125,2.0,1.0,-1
1638,ZrCl3,mp-22871,193,-5.26652704875,2.5622243704138405,-2.1892136586950004,256.1011394509805,0.5388000000000002,6.098212999999999,6.963685151314138,1.0,1.0,-1
1639,SbCl3,mp-22872,62,-3.287420776875,2.6287916765957253,-1.3147822343200002,576.3872652309527,3.7511,6.94773,9.353764,0.0,1.0,1
1640,PBr5,mp-22874,57,-2.6030638683333334,3.1232312973686005,-0.3367441080952381,915.5283636288902,1.6353,5.979718,17.405303,2.0,1.0,-1
1641,TlBr,mp-22875,221,-2.83836748,7.068918855673896,-0.8390777200000001,66.78109869790414,2.3615,4.057119999999999,4.057119999999999,0.0,1.0,-1
1642,VCl2,mp-22877,164,-5.41411717,2.8731129866678584,-1.5502478288400001,70.42275568570733,1.2595999999999998,3.6553280803978456,6.085968,2.0,1.0,-1
1643,FeBr2,mp-22880,164,-4.355294073333334,4.536917402245608,-0.4406754200000004,78.93029552449933,0.5075000000000001,3.7280016212358333,6.5578410000000025,2.0,1.0,-1
1644,CdCl2,mp-22881,166,-2.62665707,3.611054751454053,-1.48312649884,84.29809599240728,3.5945,6.710022831736192,6.710023165128419,2.0,1.0,1
1645,PbI2,mp-22883,166,-2.9214112366666662,5.112644211758223,-0.6678538033333332,149.7313959694829,2.4334,8.328713205312393,8.328713303123418,2.0,1.0,-1
1646,RuBr3,mp-22892,193,-3.86871435875,4.413499916954566,-0.3224220400000002,256.4322351158238,0.0,5.939204,7.060848224940967,1.0,1.0,-1
1647,PbI2,mp-22893,164,-2.92102081,5.357292104517278,-0.6674633766666668,142.89371196996424,2.3703,4.689420130757,7.50316,2.0,1.0,-1
1648,HgCl,mp-22897,139,-1.61941049,6.2563269387201075,-0.84064481913,125.29991694380631,2.8204,6.496311520029807,6.496311520029807,0.0,1.0,-1
1649,BiCl3,mp-22908,62,-3.290307125625,4.1803922746748015,-1.3774103155700002,501.03756636469046,3.426,6.788164999999999,8.815092,1.0,1.0,1
1650,CuBr,mp-22917,129,-3.1159303475,5.1555711925076695,-0.2478637424999999,92.40657153563906,0.9962,3.91375,6.032769,2.0,1.0,-1
1651,VCl3O,mp-22938,62,-4.690448269,1.813629944149538,-1.6086233752060004,634.68571439543,2.9013,5.390512,11.985414,0.0,1.0,-1
1652,BiClO,mp-22939,129,-4.824257753333334,7.213106012240296,-1.694407501503333,119.9091869411492,2.6391000000000004,3.913872,7.827791,2.0,1.0,-1
1653,TeRhCl,mp-22945,12,-4.644437345,5.830210987534567,-0.7239507527533332,151.4986268210821,0.8650000000000002,6.7568400390189804,7.054838590970384,2.0,1.0,-1
1654,CrClO,mp-22946,59,-6.4071554100000006,3.155400048265504,-2.027300771503333,108.8801882509929,2.0545,3.2486029999999997,8.506725,2.0,1.0,-1
1655,BiTeI,mp-22965,156,-3.222545913333333,6.151015975481927,-0.3700966283333334,125.12318883267449,1.3295000000000003,4.425194501710631,7.3780649999999985,2.0,1.0,-1
1656,C(ClF)2,mp-22966,43,-4.316700498,1.7767578514511633,-1.40158391378,226.0089644661496,5.7383,5.940429024117787,9.567261257443585,0.0,1.0,1
1657,PbIF,mp-22969,129,-3.883044926666667,6.909090836228223,-1.6639749870633336,169.73032469128705,2.1662,4.235855,9.459698,2.0,1.0,-1
1658,SbSBr,mp-22971,62,-3.7436826241666665,4.312449749327714,-0.664043408541667,359.99597264441763,1.8194,3.994595,10.385603,1.0,1.0,-1
1659,MoCl4O,mp-22974,2,-4.08730715,2.319342857948678,-1.3246884157149996,363.347843515568,1.7407,6.642360000000001,7.789441289068684,0.0,1.0,-1
1660,TlIO3,mp-22981,160,-4.304562808,6.533713544988087,-0.9800304077500002,96.39528367162657,3.0753000000000004,4.586399910677218,4.586400305797674,0.0,1.0,1
1661,BiIO,mp-22987,129,-4.433602855,7.379320758346733,-1.21369872375,158.36622268956174,1.4843000000000002,4.0283050000000005,9.759282,2.0,1.0,-1
1662,TiClO,mp-22992,59,-7.193785741666668,3.0924748231496744,-2.72878292094778,106.6613332058094,0.0,3.268935,8.209572,2.0,1.0,-1
1663,AgClO4,mp-22993,121,-4.0366163849999985,3.887752650708696,-0.5251049091544443,88.55012074337523,2.7665,5.001590332031802,5.001590332031802,2.0,1.0,-1
1664,SbSeI,mp-22996,62,-3.3678399758333337,5.10896610551264,-0.3181981982812505,425.94389578909187,1.4167999999999998,4.187346,11.100488,1.0,1.0,-1
1665,PbBrCl,mp-22997,62,-3.4282815516666667,6.130200109302025,-1.2271400227533336,349.4949529575999,3.4812,4.649264,9.473127999999999,2.0,1.0,1
1666,CrSBr,mp-22998,59,-5.91072479,3.6866636055361246,-0.9897368310416664,147.7056131186568,0.0,3.55335,8.760497,2.0,1.0,-1
1667,TiBrO,mp-23002,59,-6.95784545,4.141585310924563,-2.365150774861112,115.28743121189665,0.0,3.3871059999999997,8.408613,2.0,1.0,-1
1668,Bi4Te7Pb,mp-23005,164,-3.702815936666666,7.517304167376888,-0.2631583683333331,427.72483202889856,0.5997999999999992,4.474905761368947,24.664143,2.0,1.0,-1
1669,PbBrF,mp-23008,129,-4.081057245,7.34736775378373,-1.8243493303966671,138.36111541632968,2.8629999999999995,4.222418,7.760534,2.0,1.0,-1
1670,BiSeI,mp-23020,62,-3.3859784825,6.3258583000865265,-0.4159923482812502,435.5874447609272,1.6111,4.2739910000000005,11.277488,1.0,1.0,-1
1671,SbSI,mp-23041,62,-3.575315650833333,4.662200824088629,-0.5333144102083333,399.9503836663137,1.6748999999999996,4.110742,10.78673,1.0,1.0,-1
1672,SrIF,mp-23046,129,-4.5528681650000005,4.50943518471678,-3.0081868309522224,171.98333627568599,4.3096000000000005,4.282306,9.378447999999999,2.0,1.0,1
1673,ZrIN,mp-23052,59,-7.509777855,4.967871238532101,-1.5017160441266668,155.1849876973583,1.2172,3.772296,9.882078,2.0,1.0,-1
1674,PbICl,mp-23053,62,-3.2253909583333336,6.443454688447287,-1.0618874044200002,380.9537870354672,2.7509,4.632378,9.872183999999999,1.0,1.0,-1
1675,VClO,mp-23061,59,-6.4879095625000005,3.0311853554554173,-2.187435390670001,224.37304380020385,2.0340000000000003,3.383939424775065,8.615743202576839,2.0,1.0,-1
1676,YCI,mp-23062,12,-6.5983422083333325,4.900237993988967,-0.8592540655555551,154.40299200435595,0.0,4.155588245181781,10.780929018667452,2.0,1.0,-1
1677,Pb5(SI3)2,mp-23066,12,-3.3692842146153845,6.118759822077648,-0.7036464627884615,505.19842487558884,1.9432,7.864607537985668,15.010291812730696,2.0,1.0,-1
1678,CCl3F,mp-23071,61,-3.89185434425,1.6743724022889923,-1.0100775914440001,1089.8655594490388,4.8988,6.2901489999999995,16.971055,0.0,1.0,1
1679,BiBrO,mp-23072,129,-4.640111973333333,7.2942964094684895,-1.3825698670833326,138.81296625574095,2.3083,3.9529099999999997,8.883747,2.0,1.0,-1
1680,BiOF,mp-23074,129,-5.40060968,9.037539932181831,-2.2151930424800006,89.65611014781229,3.1303,3.7974910000000004,6.217079,2.0,1.0,1
1681,SiCl2O,mp-23079,2,-5.337316388125,1.7369234000123748,-2.2926460275675007,439.73587264040196,5.5685,6.43487,8.573058203836831,0.0,1.0,1
1682,KAs4BrO6,mp-23083,191,-5.5808916433333335,3.7390569180910687,-1.6760756500416665,228.5749412938226,2.8419,5.3471457629304435,9.231110000000001,2.0,1.0,-1
1683,BiPbClO2,mp-23084,63,-5.151706990999999,7.8367370925051185,-1.6821343321519988,204.9552390200156,2.0992999999999995,5.654331,6.9559734657149175,2.0,1.0,-1
1684,ReNClF5,mp-23098,11,-5.548190648125,3.843670595020481,-1.9539905208237496,285.70175412072143,1.8001999999999998,5.122074,8.644884,0.0,1.0,-1
1685,Nb2Bi2PbO9,mp-23101,139,-7.33481169,8.031599020658431,-2.341503476517857,197.44037681167976,1.3340000000000003,12.86882012230251,12.86882012230251,2.0,1.0,-1
1686,Sr3Fe2Br2O5,mp-23105,139,-5.830808191666668,4.747681631753044,-2.410422363020834,214.87550290611145,1.0993,4.010248354412038,13.658763083854401,2.0,1.0,-1
1687,AsS3(ClF2)3,mp-23112,2,-3.778881027307692,2.2766737330504534,-1.6740393550996155,571.0476724805081,0.0,7.829903999999999,10.348617118701462,0.0,1.0,-1
1688,Sr2Co(BrO)2,mp-23114,139,-5.145579793571429,4.84201840479587,-2.2343706051190475,584.3483970130786,0.6519000000000004,5.801917092261316,17.837052077854853,2.0,1.0,-1
1689,Sr2CoClO3,mp-23115,129,-5.681516332857143,4.6848328644819714,-2.4523552350490485,225.16394145088046,0.0,3.8795379999999997,14.960249,2.0,1.0,-1
1690,CuBiSeO,mp-23116,129,-4.76938956625,8.627813976854387,-0.8366850846484377,141.45518875529484,0.3449999999999997,3.9497129999999996,9.067505,2.0,1.0,-1
1691,FeMoClO4,mp-23123,129,-6.337226594285713,3.2221178477733905,-1.8674896283228568,258.95175063754,1.5746,5.626059,6.7843350000000004,2.0,1.0,-1
1692,KAs4IO6,mp-23126,191,-5.537786300833332,3.914969994860513,-1.6423798012916666,238.23958634546838,2.4512,5.3632963602531785,9.563563,2.0,1.0,-1
1693,SbPbClO2,mp-23138,63,-5.230551793,6.701383844347715,-1.713185748152,196.4541341461684,1.9131,5.505813,6.898050998759072,2.0,1.0,-1
1694,TlRe3(Se2Cl)2,mp-23144,2,-6.3439402735,7.372703486645436,-0.7252820335894995,517.9118605388953,1.5198,6.685629,9.164499474660088,2.0,1.0,-1
1695,TlZnSClO4,mp-23146,14,-5.0274729884375,4.433307529488758,-1.861110574860625,601.2553302496051,4.4778,7.358682000000001,9.797967,2.0,1.0,1
1696,I,mp-23153,64,-1.524012615,4.074684630977837,0.0,206.86737673791168,1.0496,5.117270776207959,9.832479,2.0,1.0,-1
1697,Br,mp-23154,64,-1.63692654,3.3726136434377976,0.0,157.36604023502463,1.3266,4.732219315078392,8.743796000000001,0.0,1.0,-1
1698,ZrCl2,mp-23162,160,-5.72596829,3.8559744373629807,-2.0408340955066664,69.81975716933798,0.8613999999999997,7.182002211643282,7.1820024800520645,2.0,1.0,-1
1699,Bi2Se3,mp-23164,62,-4.0118619875,7.176336190572356,-0.35830137690624964,606.0968727926173,1.0908000000000002,4.160115,12.535619,2.0,1.0,-1
1700,TlCl,mp-23167,221,-3.07572385,6.709635892345643,-1.26797187163,59.3560592748602,2.5887,3.900812,3.900812,0.0,1.0,-1
1701,IO2,mp-23170,14,-4.04511860125,4.975168460097908,-0.7066707504166665,424.2913015094889,1.5220999999999996,7.011995,8.334021230433482,2.0,1.0,-1
1702,HgI2,mp-23173,36,-1.410364738333333,5.169871713786026,-0.29312954,291.9017079977234,2.5784,4.6557058578018005,14.381704999999998,0.0,1.0,-1
1703,ReCl3,mp-23174,166,-5.170458934583333,4.277347393414921,-1.1189389057783334,681.4746073327916,0.9749,9.39364018993686,9.393640483481578,2.0,1.0,-1
1704,SbCl5,mp-23176,194,-2.8758281933333336,2.1188077119249784,-1.1427855060500005,468.7001010950128,1.8399,8.010246410008747,8.434759,0.0,1.0,-1
1705,HgBr,mp-23177,139,-1.3954059625,6.678630234716551,-0.42510251,139.48106979354824,2.4641,6.66579403673816,6.66579403673816,0.0,1.0,-1
1706,WCl6,mp-23178,164,-4.288716118571428,2.887145404379154,-1.3628257856514283,684.2399245018613,1.7471,6.21537,11.27471062327637,0.0,1.0,-1
1707,NiBi3,mp-23179,62,-4.386871526875,10.644179451228444,-0.02431162437500056,427.8481188444329,0.0,4.158823,11.546925,1.0,1.0,-1