,pretty_formula,task_id,spacegroup.number,final_energy_per_atom,density,formation_energy_per_atom,volume,band_gap,min_abc,max_abc,Dimension,Dim,is_uv
1051,TePdSe,mp-1217263,156,-4.248045156666667,7.451785988786256,-0.3083470841145832,69.74375241674365,0.0,3.9701941195525934,5.10918,2.0,1.0,-1
1052,TeSe2,mp-1217269,5,-3.383305383333333,5.139526760089229,-0.004930754895832834,92.24917709882702,0.8972999999999995,4.4756363355059365,5.35283480479269,1.0,1.0,-1
1053,TeMoSe,mp-1217293,164,-6.274586093333332,6.884732377953664,-0.4463009474479165,145.92086956205014,0.8689,3.439260406841709,14.244810999999999,2.0,1.0,-1
1054,TeMo2Se3,mp-1217314,156,-6.441363943333332,6.3841873435214325,-0.554310372838542,144.71027640363522,0.9492999999999991,3.3841559425223005,14.590426999999998,2.0,1.0,-1
1055,TeW2Se3,mp-1217319,156,-7.00793355,8.337506402162768,-0.4167188328385407,145.82061162633462,1.0972999999999995,3.3776968964135903,14.758657000000001,2.0,1.0,-1
1056,TeSe,mp-1217322,1,-3.326424315,5.450631189129453,-0.006818111171874956,188.78599800384487,0.9465000000000005,4.398765,11.035667423985467,0.0,1.0,-1
1057,Te3Au,mp-1217358,123,-3.161541695,7.7388527625253785,0.014404387499999947,124.40151878777745,0.0,3.131671,12.684502,2.0,1.0,-1
1058,Te3Mo2Se,mp-1217371,156,-6.126662670000001,6.779690987920373,-0.3571459487239596,160.09501870016086,1.0290000000000008,3.49950145215715,15.095057999999998,2.0,1.0,-1
1059,Te2MoWSe2,mp-1217374,156,-6.549426536666666,7.701996135785979,-0.36906081744791663,149.3882233855112,0.9655000000000004,3.4400363759130514,14.576716000000001,2.0,1.0,-1
1060,TePb3(ClO2)2,mp-1217378,38,-4.982278368999999,7.185074901401852,-1.6051177721519998,204.324740781097,2.0872,5.637003,7.006054357874197,2.0,1.0,-1
1061,Te8Pd5Se2,mp-1217383,8,-4.15480472,7.7395553221283535,-0.2856287569791661,367.06029321841936,0.0,5.125531307294104,17.736999791687488,2.0,1.0,-1
1062,Te7As5I,mp-1217385,8,-3.621921120769232,5.729610714848207,-0.02017410923076951,404.21150028698526,0.5614999999999997,7.796432953690875,14.06609870530681,1.0,1.0,-1
1063,Tl5Re6S8Cl7,mp-1217392,161,-5.8760827846153845,6.320102771447617,-1.1439172545315388,1389.2860732564636,2.349,18.299830083089322,18.299830219314195,2.0,1.0,-1
1064,Ti5S8,mp-1217445,6,-6.93771589948718,3.4295777893914874,-1.763763667307693,720.2518643104203,0.0,3.4185559999999997,35.3641089226428,2.0,1.0,-1
1065,Te4Au(OF5)4,mp-1217460,2,-4.192940839655171,3.8862197796475297,-2.081190846165517,491.95162907274164,0.2653000000000001,5.823309,10.525033935927095,0.0,1.0,-1
1066,Te15W2(Br6O)2,mp-1217490,1,-3.334933697419355,5.223880364328305,-0.3511202681451613,1040.2532636472845,0.3711000000000002,7.928307000000001,15.491222590087428,1.0,1.0,-1
1067,Te4Mo(OF4)5,mp-1217532,2,-4.575873471833333,3.61453896344056,-2.258300912835,979.7328143891408,2.9333,9.60533,10.564410371519653,0.0,1.0,-1
1068,Ta2AgS4,mp-1217770,164,-6.992463911428572,7.160791761729356,-1.2153109498809531,138.67770232477935,0.0,3.380935597671153,14.00884,2.0,1.0,-1
1069,Ta(Mo2S5)2,mp-1217790,1,-7.333236903333333,5.097944545696037,-1.3352203420833328,288.3851196269589,0.0,5.598498555579375,8.554791678222418,2.0,1.0,-1
1070,Ta10SeS3,mp-1217794,99,-10.064551565714286,13.387979545492378,-0.6007903244084828,246.1582755333981,0.0,3.3328330000000004,22.160897,2.0,1.0,-1
1071,TaW,mp-1217811,65,-12.475488645,17.659810867661008,-0.06753659500000175,34.300736870939204,0.0,2.8276928220681965,4.5552160000000015,2.0,1.0,-1
1072,TaWSe4,mp-1217821,187,-7.1340177350000005,8.303680884247461,-0.6674260665625008,136.10941946254292,0.0,3.4025215765695007,13.575497,2.0,1.0,-1
1073,TaTiSe4,mp-1217829,10,-6.583618815,6.474556366020447,-0.9607995554513892,139.68844426173902,0.0,3.511875,6.500966625631299,2.0,1.0,-1
1074,TaTiTlO5,mp-1217858,62,-8.421846168125,7.1112486837811515,-3.003939921822917,479.3423394821862,2.5943,3.8230180000000002,19.161487,2.0,1.0,-1
1075,TaSeS,mp-1217890,156,-7.39662089,7.420853309436703,-1.1210612318229174,65.33377677890199,0.0,3.4333277683170587,6.39995,2.0,1.0,-1
1076,TaRe,mp-1217894,65,-12.351038725,18.529271914578253,-0.19988631750000074,32.903344747893826,0.0,2.8033820641164837,4.467671,2.0,1.0,-1
1077,TaMo,mp-1217895,65,-11.458886395,13.523283453942346,-0.10717606500000088,33.99937177786622,0.0,2.8462954773364624,4.477023,2.0,1.0,-1
1078,TaMoW,mp-1217897,42,-11.973266696666668,15.259852931029325,-0.08608432000000002,50.135256694127996,0.0,2.80913459974936,7.154342508041951,2.0,1.0,-1
1079,TaNbW,mp-1217901,42,-11.681916996666667,14.463678795969301,-0.04284728333333495,52.5467420847577,0.0,2.84192200820026,7.2992005851140975,1.0,1.0,-1
1080,TaNbMo,mp-1217902,42,-11.013814166666668,11.755438096378402,-0.07890560000000117,52.23606387954318,0.0,2.857632454071902,7.2280267522284385,1.0,1.0,-1
1081,TaMoS4,mp-1217910,6,-7.482815363333334,5.729534409184022,-1.3835853420833348,117.42034071944448,0.0,3.2797739999999997,6.578399627822332,2.0,1.0,-1
1082,TaS2,mp-1217915,63,-7.75570556,3.5605042346568547,-1.4877864387500008,228.5976183588097,0.0,3.3430919752027464,23.61405,2.0,1.0,-1
1083,TaMoS4,mp-1217917,8,-7.4819376800000015,5.686341796576728,-1.3827076587500011,118.31224828855413,0.0,5.690754400772714,6.610762812016553,2.0,1.0,-1
1084,TaNbTe4,mp-1217942,1,-6.1618845094444445,7.883234208602523,-0.4065034444444449,495.59031322056813,0.0,7.35455241275042,9.919433639061634,2.0,1.0,-1
1085,TaNb2FeSe10,mp-1217949,6,-6.0056508921428575,6.2317334793797325,-0.6135433659598216,323.0104157428133,0.0,3.541356,10.173585401108351,2.0,1.0,-1
1086,Ta4SeS,mp-1217968,99,-9.680875746666667,12.496807830746643,-0.6142071025781265,110.92796365903921,0.0,3.362882,9.808843,2.0,1.0,-1
1087,Ta2H,mp-1217971,12,-9.122388166666667,15.549095935497306,-0.13729085954000078,38.75567902877004,0.0,2.932497332534166,4.907778498106959,2.0,1.0,-1
1088,Ta2VC2,mp-1217976,166,-10.770633788,12.043969185860634,-0.5200292420000011,60.23104678515414,0.0,7.447316455417348,7.44731655608307,2.0,1.0,-1
1089,Ta4C3,mp-1218000,160,-11.282649011428573,14.454783374784435,-0.5524414942857143,87.28714723850014,0.0,10.412864027179458,10.412864043379466,2.0,1.0,-1
1090,Ta2MoS6,mp-1218002,8,-7.568594422222222,5.970823522983628,-1.4131347009722228,180.83356046841183,0.0,5.7147860724100585,6.6722979048295645,2.0,1.0,-1
1091,Ta5S8,mp-1218017,12,-8.155265997692307,7.946292065141011,-1.457357760384616,242.66872955949643,0.0,5.792931894164993,13.176399276642535,2.0,1.0,-1
1092,Ta2FeS4,mp-1218020,164,-7.815357912857142,7.952165677742201,-1.2328553975000005,114.01366987498562,0.0539000000000005,3.3237720100567967,11.916915,2.0,1.0,-1
1093,Ta4MoS10,mp-1218028,8,-7.659584932,6.216636346323378,-1.4591414507500011,304.6097534575308,0.0,6.673948748447052,14.087973749254644,2.0,1.0,-1
1094,Ta3MoS8,mp-1218033,8,-7.627495146666668,6.136632676449302,-1.4439205754166682,242.26424312386726,0.0,5.7479200084079975,12.868652614674152,2.0,1.0,-1
1095,Ta4MoSe10,mp-1218047,8,-6.997571906666668,7.589252430277352,-0.7818473515625006,352.1239917398684,0.007099999999999884,9.919758978075272,10.511970298908052,2.0,1.0,-1
1096,Ta4MoS8,mp-1218051,164,-7.957201107692307,7.356820795012486,-1.3371493780769232,242.9252722397729,0.0,3.3225005160872434,25.410429,2.0,1.0,-1
1097,Ta7S12,mp-1218055,12,-8.047427706842107,7.528612664307738,-1.4853055061842118,364.2423259940204,0.0,5.766599785084188,12.793807988093775,2.0,1.0,-1
1098,Ta4AgS8,mp-1218056,6,-7.3813256076923075,6.7813890219770885,-1.3776651878205135,266.459412767185,0.0,3.358317,13.76451708739413,2.0,1.0,-1
1099,Ta3Cr5N4,mp-1218060,99,-10.419716876666667,10.962423494969833,-0.7823452941266673,130.09491367584292,0.0,2.9872099999999997,14.579035999999999,2.0,1.0,-1
1100,Ta3WS8,mp-1218062,44,-7.775421410833334,6.6007489126332475,-1.4158065529166683,247.34285097840626,0.0,13.439711241220063,13.439711241220063,2.0,1.0,-1
1101,Ta2NiS4,mp-1218077,164,-7.4532795,7.597020898613432,-1.2550435846428567,119.96616621351338,0.0,3.350504364179817,12.339791,2.0,1.0,-1
1102,Ta6TeSe2,mp-1218083,12,-9.403969022777778,11.892813744200796,-0.3726590599652787,382.9107738203018,0.0,7.641860637718017,10.974442070117867,2.0,1.0,-1
1103,Ta2NbTeI7,mp-1218092,8,-4.809878193636363,6.5157677206426525,-0.4800373268181817,749.6308713806454,0.4399000000000006,7.697509317748046,14.60532624440632,2.0,1.0,-1
1104,Ta3C2,mp-1218120,164,-11.3923398,14.562065239260757,-0.5869609420000004,258.5626499933348,0.0,3.1376606335510537,30.326569,2.0,1.0,-1
1105,Ta4NiS8,mp-1218136,164,-7.584368745384616,7.185617374365983,-1.353971350384616,240.1057793870966,0.0,3.3690698206218577,24.425977,2.0,1.0,-1
1106,Ta3(InSe3)2,mp-1218192,187,-6.319673254545455,7.546059992702031,-0.6785669621875005,274.2397503554057,0.0,3.4943648711611384,25.933632,2.0,1.0,-1
1107,SrIn3Au,mp-1218236,107,-3.0628807680000003,7.658659494877066,-0.4191979713333335,136.38763284873778,0.0,7.260036600205469,7.260036600205469,2.0,1.0,-1
1108,Sr2ZnAs2,mp-1218372,187,-3.62133854,4.5558877793817105,-0.8299499546666667,142.32737606863967,0.0,4.38028021157962,8.565526,2.0,1.0,-1
1109,Sr2ZnP2,mp-1218384,187,-3.8864978760000004,3.825704243475368,-0.7934423080952382,131.34139952828784,0.0,4.248144326548358,8.403738,2.0,1.0,-1
1110,SrBi3Cl3O4,mp-1218398,107,-5.095652896363637,6.715188717562832,-1.995307533767879,218.82342245819044,0.28000000000000025,14.115297938095956,14.115297938095956,2.0,1.0,-1
1111,SrBi3Br3O4,mp-1218405,107,-4.930696223636363,7.0572206254349625,-1.725875707424242,239.5955197551756,0.2584,15.224305269398961,15.224305269398961,2.0,1.0,-1
1112,SrBi3I3O4,mp-1218434,107,-4.747450667272728,7.11398853969807,-1.5734248578787882,270.5959930616391,0.0,16.644352530805936,16.644352530805936,2.0,1.0,-1
1113,Sr2YCu2BiPbO8,mp-1218640,107,-6.1453578879999995,6.997115657652071,-2.171234415333333,221.99012466649762,0.0,15.799860947341216,15.799860947341216,2.0,1.0,-1
1114,Sr3Cu3Pb3ClO8,mp-1218799,6,-5.411152802777778,6.819462375104591,-1.8709761524033337,301.5859957519648,0.0,3.870427,19.93454325884917,2.0,1.0,-1
1115,SnGeSe2,mp-1218835,26,-4.2211016675,5.488088121542885,-0.3149960011718749,211.35829707790163,0.8162000000000003,4.0380150000000015,11.446384,2.0,1.0,-1
1116,Sr2Cu2RuPb2ClO8,mp-1218869,38,-5.75860230375,6.88577769975364,-1.7900876557245828,236.6332987002121,0.0,3.927289567182436,15.342374,2.0,1.0,-1
1117,SnSeS,mp-1218912,156,-4.2216995200000005,4.756631238362117,-0.5622084534895837,80.20044509414396,0.9221999999999996,3.7944893639857518,6.431902,2.0,1.0,-1
1118,Sr2CaCu2(BiO4)2,mp-1218930,37,-5.7704474333333335,6.2666689838810585,-2.0818895602222223,470.7976286073367,0.0,5.417115,16.113989187448308,2.0,1.0,-1
1119,SnP,mp-1218948,164,-4.694068175,4.785522252094972,0.017360683214285192,103.87820653340208,0.0,4.176308154128117,6.877153999999999,2.0,1.0,-1
1120,SnPbS2,mp-1218951,26,-4.47030726,6.101166612516952,-0.8032575953125005,212.31239815936573,1.0244999999999995,4.0999360000000005,11.701742999999999,2.0,1.0,-1
1121,Sn2SeS,mp-1218960,26,-4.3392436875,5.38663914109193,-0.5922324238671877,214.83025682843387,0.8272999999999993,4.124219,11.61257,2.0,1.0,-1
1122,Sn4TeSe3,mp-1219000,6,-4.08515812125,5.7885275094553,-0.3764927733789065,240.7734345396349,1.1935000000000002,4.261608,11.9767583800647,2.0,1.0,-1
1123,Sn2SeS2,mp-1219003,62,-4.337641112,4.87215184218645,-0.6454341277187503,518.7455076920699,0.5321999999999996,3.8923699999999997,14.520967,1.0,1.0,-1
1124,Sn3SbSe2I5,mp-1219041,8,-3.161449183636364,5.3258520599522985,-0.3642125622443179,396.074932423053,0.7956000000000003,7.5195486418489885,12.717954826090908,1.0,1.0,-1
1125,Sn2SbSe2I3,mp-1219043,36,-3.314819839375,4.8044522591820815,-0.3508191205859377,620.6136147874507,1.0456,7.809044282218214,19.038439,1.0,1.0,-1
1126,Sn2SbS2I3,mp-1219046,36,-3.485950741875,4.73121652507062,-0.5276804257812504,564.3843504904993,1.0824999999999996,7.77617679752441,17.461303,1.0,1.0,-1
1127,Sn2GeTe3,mp-1219050,6,-3.8347650375,5.958160270376622,-0.15608597833333349,772.4002346192343,0.2445000000000004,4.3850169999999995,14.33412802053407,2.0,1.0,-1
1128,Re3Br8Cl,mp-1219236,8,-4.772101574166666,5.297837060077773,-0.4651978365216666,773.1278900608977,0.9126,9.773548378819894,9.807469433018133,2.0,1.0,-1
1129,Re2Os(Se2Cl)2,mp-1219275,2,-6.467987367777778,7.048233483612398,-0.6226832917661108,894.69180503446,1.289,9.075797,12.17743475162343,2.0,1.0,-1
1130,Si3NCl9,mp-1219293,1,-4.377637555,1.7254882108523997,-1.6458627059015385,803.2621745011016,5.2475,6.8389240000000004,14.618372965880539,0.0,1.0,1
1131,SeS7,mp-1219328,1,-4.030316131666667,1.9867897345312169,-0.5544610634440102,760.7737026253333,1.9009,5.088822,15.561232866032212,0.0,1.0,-1
1132,Si3Au10,mp-1219349,217,-3.721585782692308,14.600694486627473,0.04878017576923045,467.18572727829553,0.0,8.466498174255692,8.466498174255692,0.0,1.0,-1
1133,Sc3Te4,mp-1219373,160,-5.688542637142858,5.108221623029875,-1.178455346428572,209.75837837846072,0.0,14.220828898462461,14.220829272470471,2.0,1.0,-1
1134,SbPbIO2,mp-1219447,107,-4.917423972,7.404747643930754,-1.3460255995000003,109.40494638709656,1.5057,7.440388511681968,7.440388511681968,2.0,1.0,-1
1135,SbAs,mp-1219457,160,-4.40902323,6.067964257083869,-0.014963407499999803,53.82323735676554,0.0,4.379586292358332,4.379586488829512,2.0,1.0,-1
1136,Sb4(TeSe)3,mp-1219473,8,-3.839852309,5.938264473127009,-0.1964880907031244,309.4762458129145,0.2049000000000003,7.285567329730197,10.375507095062005,2.0,1.0,-1
1137,Sb2Te2Se,mp-1219475,160,-3.766385496,5.954732679742924,-0.1582823324687503,161.092069045642,0.4848999999999997,10.567867545407637,10.567867679009092,2.0,1.0,-1
1138,Sb4Se3SI4,mp-1219479,6,-3.4153849266666665,5.109329569609288,-0.3676532833463539,410.6726564261791,1.3956000000000004,4.1771720000000006,10.782111568527286,1.0,1.0,-1
1139,ReW2,mp-1219490,69,-12.722250266666668,19.292409609129955,0.06467644166666513,47.67424187109372,0.0,2.7433461901825296,7.09758137114475,1.0,1.0,-1
1140,SbPbBrO2,mp-1219502,107,-5.05390229,7.283367765967037,-1.4599211325,100.51255489684357,1.5076,7.070969014331343,7.070969014331343,2.0,1.0,-1
1141,Sb3TeClO6,mp-1219504,8,-5.500017849090908,3.9201206769902255,-1.6583679909781817,264.4621032235439,2.7056,8.163014133388781,9.659278075729057,2.0,1.0,-1
1142,Sb3AsS6,mp-1219513,26,-4.3876526215,4.118713976400113,-0.5992464888750006,510.08303612338784,0.00020000000000042206,3.7998879999999997,12.036824000000001,1.0,1.0,-1
1143,Sb4(SeS)3,mp-1219516,26,-4.1822521450000005,4.991466183022158,-0.4399812456406259,545.6645188689292,1.0359000000000007,3.95276,11.997996,1.0,1.0,-1
1144,Sb3Cl9OF4,mp-1219529,2,-3.62721481,2.654922683859657,-1.6507719561970589,971.1465674289723,2.2573,7.218145,13.761955549374298,0.0,1.0,-1
1145,SbPb2S2I3,mp-1219558,36,-3.524635736875,5.8972999422484245,-0.64059661703125,552.4543444374108,1.2371,7.743785026074653,16.489767999999998,2.0,1.0,-1
1146,SbH7F12,mp-1219573,5,-4.3070594710000005,2.5581745756692245,-2.114371497231,231.6004533901548,5.0236,5.204489371271882,8.034650712548059,1.0,1.0,1
1147,Sb4Cl13F7,mp-1219579,1,-3.466095295833333,2.5239195742051823,-1.6844320210712502,711.1582675706462,1.5991,7.85418,10.280701273519671,0.0,1.0,-1
1148,Sb8Cl2O11,mp-1219592,2,-5.5824894785714285,4.690032916777793,-1.6662022390604758,432.29632482127136,2.4099000000000004,4.215232,11.474144139469793,2.0,1.0,-1
1149,PtSeS,mp-1219720,156,-4.915329266666666,7.976322741172996,-0.5687262484895831,63.72685379367034,0.5415999999999999,3.682483399818661,5.42638,2.0,1.0,-1
1150,PtCl2,mp-1219748,12,-3.5843084666666667,4.940324187827959,-0.7247719121733335,178.80882692401772,1.1394000000000002,6.785847320053112,8.218805846486763,1.0,1.0,-1
1151,Pt3(RhSe5)2,mp-1219761,164,-4.898311580666667,8.35367226892215,-0.37161467089583294,314.20345186319116,0.0,3.769820097259285,25.52931,2.0,1.0,-1
1152,PdSeS,mp-1219871,19,-4.534917504166667,5.328952055721815,-0.4853231193229159,271.029585975833,0.3701000000000003,5.652424,8.310839999999999,2.0,1.0,-1
1153,Sr2YCu2BiPbO8,mp-1219942,14,-6.2339865803333305,6.634506764715158,-2.2598631076666664,936.491969777816,0.0,5.405665,31.794615999999998,2.0,1.0,-1
1154,NiTeSe,mp-1220035,156,-4.386659866666666,7.088737635953032,-0.2468768374479164,62.13569409234585,0.0,3.767640907322378,5.054423,2.0,1.0,-1
1155,Pb3IF5,mp-1220040,36,-4.4854179033333335,7.569330900388818,-2.289339626216667,370.087894419009,3.1139,4.328104507662911,22.876998,2.0,1.0,1
1156,Ni11(GeSe2)2,mp-1220046,99,-5.390105592941175,7.6255353924609075,-0.2835641164338236,241.0056736966877,0.0,3.6177599999999996,18.413984,2.0,1.0,-1
1157,Ni2H,mp-1220079,166,-4.986406523333334,8.339830460257781,-0.053069849539999936,23.57351171427445,0.0,4.433694074277226,4.433694490624382,2.0,1.0,-1
1158,NiBi6Rh,mp-1220131,26,-4.648662234375,10.702236089981476,-0.08808093312500098,439.24689699044427,0.0,4.219117,11.576621000000001,1.0,1.0,-1
1159,Ni2P2(SeS)3,mp-1220140,1,-4.674700809,4.062461647839626,-0.3453458973549111,209.4483036029604,0.0,5.9715489999999996,6.995477221024598,2.0,1.0,-1
1160,Ni8Bi8S,mp-1220141,18,-4.898282592352942,9.590024064330862,-0.1433203695955887,752.6795713967905,0.0,4.228036,17.576372,1.0,1.0,-1
1161,Ni11(GeTe2)2,mp-1220167,99,-5.255884475294117,8.267414852614943,-0.2323101864705881,261.37212343616693,0.0,3.704282,19.048079,2.0,1.0,-1
1162,Ni17(GeSe)4,mp-1220298,99,-5.5172504328,8.079547420021024,-0.28772719717500084,329.6987286023225,0.0,3.6007029999999998,25.429783999999998,2.0,1.0,-1
1163,NbW,mp-1220316,65,-11.57123432,13.431388320259295,-0.041518565000000514,34.21449552143223,0.0,2.8105301078170286,4.593246,2.0,1.0,-1
1164,NbRe,mp-1220322,65,-11.41300538,14.037573111624944,-0.1400892675000005,33.01700855377557,0.0,2.7809629991146947,4.535669,2.0,1.0,-1
1165,NbTc,mp-1220323,65,-10.360501955,9.672650761457401,-0.12953948000000004,32.773591218279506,0.0,2.816928975357739,4.4192550000000015,2.0,1.0,-1
1166,NbMo,mp-1220327,65,-10.54777713,9.231307464958839,-0.0743030950000012,33.96992167862834,0.0,2.8233766062969714,4.5313099999999995,2.0,1.0,-1
1167,NbMoW,mp-1220335,42,-11.35941213,12.3202762891915,-0.05772061666666654,50.23104020180579,0.0,2.801811412112528,7.185357313899982,2.0,1.0,-1
1168,NbReMo,mp-1220357,42,-11.191571603333335,12.686511967537625,-0.06107985166666907,49.09078170138322,0.0,2.773044615190495,7.149460454622923,2.0,1.0,-1
1169,NbWSe4,mp-1220367,187,-6.8568878416666665,7.317748241149211,-0.6830416048958341,134.4693479329837,0.0,3.3963738573197437,13.460515,2.0,1.0,-1
1170,NbMoS4,mp-1220404,6,-7.173675459999999,4.411237956782483,-1.3671908704166675,119.36955961500168,0.0,3.289175,6.647754198292006,2.0,1.0,-1
1171,NbSeS,mp-1220413,164,-6.835807793333332,4.938811737272668,-1.145738998489583,137.13259035164313,0.0,3.4305679676020118,13.454823000000001,2.0,1.0,-1
1172,Nb4Cu(CS2)2,mp-1220428,156,-7.983501752727273,5.523486989175017,-0.997142871136364,176.607372364598,0.0,3.3352753551293186,18.332207,2.0,1.0,-1
1173,NbMoSe4,mp-1220443,187,-6.562051153333332,6.220891736582438,-0.7402854898958336,134.71564622202092,0.0,3.4116826221231364,13.364423,2.0,1.0,-1
1174,NbW3S8,mp-1220455,25,-7.693930766666668,6.303649063490515,-1.2972971512500011,237.331844751116,0.0,3.23692,13.071172,2.0,1.0,-1
1175,Nb4CuSe8,mp-1220460,12,-6.354140411538461,6.34414719597572,-0.7793928229807687,279.24141299012365,0.0,6.071999155168338,13.55998826604345,2.0,1.0,-1
1176,Nb4C3,mp-1220501,160,-10.166473457142855,7.6274177311197615,-0.439964562857142,88.7497482988648,0.0,10.449072823822648,10.449073037958774,2.0,1.0,-1
1177,Nb3WSe8,mp-1220503,8,-6.698480981666666,6.629119532041477,-0.7627031973958331,274.0977638720028,0.0,6.944425487534732,11.961211438496099,2.0,1.0,-1
1178,Nb4C3,mp-1220515,166,-10.200968132857145,7.622085694370082,-0.4744592385714291,88.81183326332592,0.0,10.445356654590306,10.445356953973857,2.0,1.0,-1
1179,Nb4GeSe8,mp-1220541,12,-6.392401439230769,5.9674783905512045,-0.7773599133653841,299.39774433405563,0.0,6.070074897635203,14.462740220945994,2.0,1.0,-1