,pretty_formula,task_id,spacegroup.number,final_energy_per_atom,density,formation_energy_per_atom,volume,band_gap,min_abc,max_abc,Dimension,Dim,is_uv
4227,TaSe2,mp-7834,160,-7.097353643333332,7.759003238706575,-0.8141534482291668,72.52263413795446,0.0,7.203164979868919,7.2031655447476695,2.0,1.0,-1
4228,NaTl3(SO3)2,mp-7853,164,-5.09176172,5.873124785626287,-1.690129744756944,225.13244034648312,2.9345,5.996866607004862,7.228675,2.0,1.0,-1
4229,PtO2,mp-7868,186,-5.786331531666666,9.21850591896414,-0.9322519824999992,81.80932226277424,1.5424000000000002,3.1640686345356035,9.435837,2.0,1.0,-1
4230,TaSe2,mp-7926,186,-7.093294744166666,7.546657384340772,-0.8100945490624992,298.25302753164533,0.0,3.4748841565738564,28.52158,2.0,1.0,-1
4231,Cs2O,mp-7988,166,-3.2056681366666666,4.047968458054648,-1.193511399037356,115.60293111947884,0.6218999999999999,7.751154641933355,7.7511549694482325,2.0,1.0,-1
4232,BN,mp-7991,194,-8.7885601675,1.8248172241090568,-1.4726281882733332,45.167000671291255,4.2704,2.5115996500001745,8.267796,2.0,1.0,1
4233,Ba2Cd,mp-8093,139,-1.8247334233333328,4.503963701831318,-0.2377896166666668,142.70464780881588,0.0,8.246714352473234,8.246714352473234,2.0,1.0,-1
4234,Ba2Hg,mp-8094,139,-1.7645250433333333,5.677447644277822,-0.3839843683333332,138.9992964466399,0.0,8.20635661119586,8.20635661119586,2.0,1.0,-1
4235,Li(TiSe2)3,mp-8132,164,-5.815054982,4.137401585952823,-1.157968203739583,250.56254241217715,0.0,3.5771237778757388,22.610885,2.0,1.0,-1
4236,AsPO4,mp-8140,62,-6.720535707083332,3.2945905366515587,-2.2113580168452383,342.51770883566536,4.5923,5.0436879999999995,8.719677,2.0,1.0,1
4237,TlCu4S3,mp-8159,123,-4.10576930125,6.4927419123067285,-0.4585881436718751,141.88219465196408,0.0,3.881445,9.417617,2.0,1.0,-1
4238,Tl2SiS3,mp-8190,2,-4.357418963333333,5.0782459725618505,-0.9294873665625,348.60285959772153,2.2938,6.903722999999999,8.561885321357558,2.0,1.0,-1
4239,Zr(PS3)2,mp-8203,84,-5.5704017327777775,2.521575739986027,-1.1023782267658733,455.12684899087196,1.5351,6.910419999999999,9.530673,1.0,1.0,-1
4240,GaGeTe,mp-8211,166,-3.830852996666666,4.989099768840489,-0.2327115674999997,179.7054093150441,0.2841,12.417398510235063,12.417398548876696,2.0,1.0,-1
4241,TlPS3,mp-8249,71,-4.363221823,4.023799379790613,-0.7244401345892854,273.64940425605147,1.7792999999999997,7.158461026949438,7.158461026949438,0.0,1.0,-1
4242,S,mp-83,14,-4.0984271325,1.6086536116725931,0.03802273437499997,1853.556507077604,2.5623,6.67754,22.92695600776492,0.0,1.0,-1
4243,TlSbF6,mp-8348,166,-4.52747333,4.990010185812512,-2.6507289521425004,146.4644776352396,4.3934,5.313500304021446,5.3135005329884,0.0,1.0,1
4244,Ta2PdS6,mp-8435,12,-6.8078954366666675,5.388079311439806,-1.2819647398611111,203.62130224739917,0.0,6.9949931857257015,10.656438505254185,2.0,1.0,-1
4245,Ta2PdSe6,mp-8436,12,-6.2305937500000015,6.811193716819103,-0.6893819793402779,229.67392621853875,0.0,7.2894766608335475,11.172009180870194,2.0,1.0,-1
4246,Tl4SiS4,mp-8479,9,-4.0269721516666666,5.951824418621796,-0.830984884166667,543.417787130922,2.0501,7.807557497709255,8.757442552078889,1.0,1.0,-1
4247,VS2,mp-849060,2,-6.632785763333334,1.903152117773052,-1.2894904954166673,100.40223239004796,0.0,3.1900180121726582,11.458782272809836,2.0,1.0,-1
4248,V6O5F19,mp-849412,1,-5.8422235050000015,2.8251235539192967,-2.7545496281286668,438.84256699988197,2.0484,5.376894,14.80702415153072,2.0,1.0,-1
4249,V3OF11,mp-849451,1,-5.6682897793333336,3.01489982514262,-2.863127435956,416.1744771595504,1.5735,5.268082,14.732796006111874,2.0,1.0,-1
4250,V2O5,mp-849565,13,-7.416282734183673,2.811388185680432,-2.2688342365051017,1503.9772371532379,2.314,4.910474,21.059916779298273,2.0,1.0,-1
4251,KV12O30,mp-849579,192,-7.293479875116278,2.3965286184728263,-2.239916250709303,1566.4635195410474,0.3667,10.876195971820662,15.290989999999999,1.0,1.0,-1
4252,Mn(PO3)5,mp-849736,11,-6.991467245476192,2.4398239107070867,-2.313740214153443,612.2629645710133,0.3209,5.03988,13.693848999999998,2.0,1.0,-1
4253,V16CrO41,mp-849774,25,-7.419516083103447,3.2090779203412634,-2.2446397243318974,788.0955247417975,0.00769999999999993,4.608683,14.678537,2.0,1.0,-1
4254,B6H10C2SBr,mp-849797,19,-5.151832270187501,1.5013453068178624,-0.3499725179037497,1866.4174582830587,4.5168,9.748286,19.355303,0.0,1.0,1
4255,B12H21C4S2I,mp-849805,14,-5.1585411144375,1.4881142467214188,-0.31943395724425017,1740.6469995660761,4.2777,9.832462,14.101529999999999,0.0,1.0,1
4256,AsS2NF6,mp-8500,12,-4.669685438999999,2.508973246392812,-1.861598326077,176.74354700857842,2.6462000000000003,5.45920759450536,5.868680100242728,0.0,1.0,-1
4257,Fe4S5,mp-850083,75,-6.5102667699999985,2.0308057111291875,-0.8163822306250003,627.4919743016428,0.0,7.891269082407848,10.06905431953935,2.0,1.0,-1
4258,Co5SnO12,mp-850192,12,-5.743168651111112,4.7831916279614735,-1.2359938480555557,210.1606163363568,1.0809,5.0468566126131424,9.53172605576414,2.0,1.0,-1
4259,Fe4S5,mp-850249,3,-6.509160736111111,2.0239706418481482,-0.8152761967361121,629.6110520337843,0.0,7.853873030540855,10.204747708028897,2.0,1.0,-1
4260,H2,mp-850274,139,-3.389195785,0.1468500914916668,4.440892098500626e-16,22.794997671265076,8.8621,3.0959733153378437,3.0959733153378437,0.0,1.0,1
4261,LiV3OF11,mp-850742,7,-5.7254985640625,2.975404825306865,-2.976351187979583,429.44608776316977,0.0,5.240353,15.379628996620205,2.0,1.0,-1
4262,NaSbO2,mp-850814,61,-5.347668838125,3.789319750519781,-1.863922739583333,619.6318570684622,2.7684999999999995,5.508223,16.617082999999994,2.0,1.0,-1
4263,VOF3,mp-850876,1,-5.8825964195000005,2.8453136495156914,-2.700752031464,289.3188971110432,2.9193,5.420504,9.562092995053854,2.0,1.0,-1
4264,V6O5F19,mp-850925,1,-5.8434209889999975,2.9441196568017483,-2.7557471121286667,421.1053275737357,1.9682,5.32095,14.734638522268064,2.0,1.0,-1
4265,VF4,mp-850937,14,-5.6193459850000025,3.0025135453153973,-3.002524663952,280.80567903720987,1.6657,5.0806949999999995,7.5485948208140705,2.0,1.0,-1
4266,V6O5F19,mp-850981,1,-5.8405686093333316,2.8555668899053828,-2.752894732462001,434.1640452816896,1.9614,5.375567,14.859436032780886,2.0,1.0,-1
4267,PF5,mp-8511,194,-5.032200208333333,2.2864841816224986,-2.9461941199202384,182.96308113991336,7.1089,5.7552883342029,6.378208,0.0,1.0,1
4268,S(OF)2,mp-8537,92,-5.0911932265,1.9266452923245008,-2.130109012101,351.8564102344201,5.9037000000000015,5.394222,12.09227,0.0,1.0,1
4269,SF6,mp-8560,229,-3.93871908,2.2572553237937902,-2.224963270037857,107.44496952281678,5.9139,5.1872358251492665,5.1872358251492665,0.0,1.0,1
4270,InBF4,mp-8586,62,-5.3795279212499985,3.362781857353048,-2.860648581904444,398.244357756704,4.6622,5.792842,9.231722,0.0,1.0,1
4271,Sb2TeSe2,mp-8612,160,-3.903606208,5.7572819397835175,-0.2249809349374999,152.58790467140062,0.4808999999999992,10.478996958385855,10.47899718481735,2.0,1.0,-1
4272,MnPS3,mp-8613,12,-5.803183687000001,2.6833312665172486,-0.8043913005203202,225.3880995541573,0.2185999999999999,6.067399447288599,7.345929809549503,2.0,1.0,-1
4273,ScAg(PS3)2,mp-8616,163,-5.13528039,2.7664095611785013,-1.0523267867559525,488.798052527511,2.0349,6.2220913620130185,14.578942999999999,2.0,1.0,-1
4274,SeI2,mp-861871,136,-2.11411731,3.9256338216107167,0.06719492588541669,281.52183832283436,0.9788,3.9330510000000003,8.460407,1.0,1.0,-1
4275,SeBr2,mp-861891,136,-2.291604725,3.223955957001968,-0.03501653911458321,245.9609232519716,0.8981,3.672546,8.183695,1.0,1.0,-1
4276,Sb2S2O,mp-861911,12,-4.901413751000001,4.686839590913877,-1.0114842144999998,229.3368322754384,1.3116000000000003,5.956234839084336,10.36558892666196,2.0,1.0,-1
4277,Ba3Co(CN)3,mp-861914,176,-7.145377806000003,4.341884475862578,-0.7050789112140009,419.9006906866025,0.8434999999999997,5.829496,9.119950535858512,0.0,1.0,-1
4278,BaSb2F12,mp-861962,1,-4.822670538666666,4.126610034488381,-3.0077655442853337,244.99102218224832,4.4224999999999985,5.3495300000000015,9.475942426700048,2.0,1.0,1
4279,Sr3Co(CN)3,mp-862670,176,-7.0976852865,3.7151017582157455,-0.7262332647139992,357.43779966688624,1.1090999999999998,5.43335,8.715676149688731,0.0,1.0,-1
4280,TeI2,mp-862773,136,-2.099292263333333,3.8617540337971215,-0.0355168766666667,328.00869225622375,0.8206,4.176314,8.862293,1.0,1.0,-1
4281,Te4Pt3,mp-8628,166,-4.777251347142856,10.554895618881927,-0.3792617971428568,172.3724246162795,0.0,12.361111308487521,12.361111518008563,2.0,1.0,-1
4282,InCl3,mp-862983,194,-3.0553996225,2.6549168813733983,-1.427090457445,276.67385876381667,3.0308,3.434286,9.64496190427339,1.0,1.0,1
4283,VF4,mp-863400,14,-5.603066277999999,2.8788251489941037,-2.9862449569520004,292.87046321840967,1.9189,5.104031,9.695773365259834,2.0,1.0,-1
4284,GeTe7As4,mp-8645,164,-3.78846762,6.06545165344536,-0.01658362124999968,346.4632391917537,0.6219000000000001,4.12339850410132,23.529676000000002,2.0,1.0,-1
4285,NbC2NCl8,mp-864879,36,-4.856762919583333,2.1824605444098464,-0.9785840494549998,630.8389429477273,2.3156,6.162043238310244,16.756974,0.0,1.0,-1
4286,HfBr3,mp-864915,194,-4.95623639125,4.359059555870804,-1.2392442737500002,318.6195324149571,0.0,3.4178300000000004,10.375180477321829,1.0,1.0,-1
4287,BrCl,mp-864928,186,-1.699305805,2.401656937346041,-0.25391704663000003,159.51887392997472,1.3584,4.394768232320904,9.53695,0.0,1.0,-1
4288,HfPd5,mp-865166,65,-6.614759655,12.277199542855588,-0.6386600049999996,96.11006575371205,0.0,4.039095,6.251825207463978,2.0,1.0,-1
4289,SF6,mp-8652,164,-3.9368502590476178,2.3918511008138257,-2.223094449085476,304.19627215220726,5.9243000000000015,4.901149,8.465696176048843,0.0,1.0,1
4290,TlInS2,mp-865274,15,-3.87137713,5.415851090974155,-0.8565480190625001,940.2571649894752,1.3050000000000006,7.8864473372492,15.378302498921654,2.0,1.0,-1
4291,YCo,mp-865373,166,-6.9845949575,5.4203774379129275,-0.19720050333333367,90.58133408726616,0.0,7.209589781101626,7.209589793840215,2.0,1.0,-1
4292,VBr3,mp-865473,194,-4.277699185,3.3521697686378094,-0.7790277625000006,287.95766617163287,0.0,3.363495,9.942683198232759,1.0,1.0,-1
4293,VI3,mp-865493,194,-3.79189942375,3.956815624286532,-0.3779134450000004,362.3013601873109,0.0,3.6810959999999997,10.660586610349826,1.0,1.0,-1
4294,VCl4,mp-865511,13,-4.3609690775,2.0306054280272625,-1.541107082108,630.5010565934248,0.1143,6.382205,11.699147266227312,0.0,1.0,-1
4295,YBr3,mp-865605,194,-4.69865072125,2.948371338829688,-1.8543380379166663,370.15878612067877,2.9549,3.752101,10.673121316107908,1.0,1.0,-1
4296,Li2TeO3,mp-865750,12,-5.306258883333333,3.3906211393020094,-2.0232350384027766,185.59388473107484,3.3528,5.480481500698273,7.477215201804746,2.0,1.0,1
4297,TlW2(Cl3O)2,mp-865762,12,-4.708365441818182,4.798157871590008,-1.4728797401872733,282.6699956877424,0.0,6.996812786108401,11.481346789291965,1.0,1.0,-1
4298,LiMg2,mp-865939,139,-1.75423565,1.4748130396346129,-0.051074661111111176,62.54664368274796,0.0,5.755831734113933,5.755831734113933,2.0,1.0,-1
4299,PHPb2F10,mp-865973,2,-4.894561309285714,5.450003418130241,-2.7314314520779592,193.89165123039768,5.4789,4.65817,8.929806939077743,2.0,1.0,1
4300,Bi3BrO4,mp-866311,123,-5.3572498525,8.503313517043926,-1.5710384343749997,150.5312700797973,0.9387999999999996,3.9905760000000003,9.452693,2.0,1.0,-1
4301,H34C19,mp-866659,4,-5.6284630335849055,1.0762719064209587,-0.2424275659071696,809.9200575015058,5.6469000000000005,7.334599000000001,10.838928975373905,0.0,1.0,1
4302,ReTeSeCl4,mp-866695,82,-4.381127963214285,4.118123942574491,-0.9383931775548214,862.2269033787384,2.3117,10.496717625287728,10.496717625287728,0.0,1.0,-1
4303,ReTeSCl4,mp-866713,82,-4.5136207385714275,3.8400042700893975,-1.0741604687378572,843.5598267049858,2.3311,10.402134384939421,10.402134384939421,0.0,1.0,-1
4304,BP4(SBr)3,mp-867154,11,-4.44158993,2.444847297308068,-0.4722913448024894,639.2802955964984,2.6777,6.732695,11.133402,0.0,1.0,-1
4305,H6C2SBr2,mp-867563,14,-4.389224009090909,2.208416939102777,-0.3311490713495457,667.5250880671646,2.4008,7.552474,11.612652647778456,0.0,1.0,-1
4306,LiCu2F5,mp-867590,62,-4.227734223125,3.595359387210142,-2.076473363660417,423.1065051794912,0.4004,3.143998,13.426535000000001,2.0,1.0,-1
4307,Tl(CuS)2,mp-8676,139,-4.0213540660000024,6.728616826182275,-0.5201448552500004,97.63047481732426,0.0,7.336688794916341,7.336688794916341,2.0,1.0,-1
4308,Co2SbO6,mp-867659,64,-5.869266382777778,5.058633915909336,-1.4168630891666656,220.34199892723615,0.0,5.10236855448575,9.787617,2.0,1.0,-1
4309,NaTlO,mp-867680,6,-3.7656074908333337,5.632576794886639,-1.1249506023611109,286.9943954186119,0.25059999999999993,3.649193,12.801778512297776,2.0,1.0,-1
4310,Li2WS4,mp-867695,111,-5.6085249428571435,2.695804664729433,-1.22739184702381,200.795648546268,1.931,5.45009,6.069813,2.0,1.0,-1
4311,ZrTiTe4,mp-8677,10,-5.613159023333334,5.969755031620622,-0.7770929622222221,180.6615469466452,0.0,3.882232,6.942847130524262,2.0,1.0,-1
4312,VOF,mp-867703,166,-7.140461615,3.856107875833952,-2.7844210574799995,74.0153413312483,2.6749,7.922280114183606,7.9222806144307985,2.0,1.0,-1
4313,SiH9C3Cl,mp-867818,11,-5.012605363214286,0.9875720664367856,-0.4756670025600001,365.3493067231237,5.6061,6.6089910000000005,7.988405999999999,0.0,1.0,1
4314,Rb2TlAu3,mp-867851,51,-2.6345553525,8.499877049223363,-0.27716106166666626,377.52163578552717,0.0,5.827308,9.292276,2.0,1.0,-1
4315,Sb16Cl4O21,mp-867961,1,-5.54851634804878,4.998249356259566,-1.6402627238851215,805.9622620949315,1.4108999999999998,8.334284,10.470969619853932,2.0,1.0,-1
4316,MnPSe3,mp-8695,148,-5.270124787,4.014945186219659,-0.25757943405157063,267.0065871592111,0.0,8.362362104550362,8.362362606574413,2.0,1.0,-1
4317,TlN3,mp-870,140,-6.5140250325,5.449010526039005,0.04074235321500018,150.17863147366492,2.0640999999999994,5.830782625304942,5.830782625304942,0.0,1.0,-1
4318,AsF5,mp-8723,194,-4.3754332075,2.7871329982096174,-2.4151216951583327,202.46482496279546,4.628,5.9458176239035465,6.612958,0.0,1.0,1
4319,HfSnS3,mp-8725,62,-6.405864296999999,5.187505555857997,-1.5287182358750002,503.70858137582235,1.2463000000000002,3.7170370000000004,14.260973000000002,1.0,1.0,-1
4320,Ta2Se,mp-8732,129,-9.516310455,12.220232609631974,-0.4458215424479176,119.81084740377622,0.0,3.404318,10.337985,2.0,1.0,-1
4321,SnS,mp-8781,39,-4.4647984225,2.5716939152366627,-0.7235175615625007,194.7104017964553,1.5319,4.162949352257123,11.236193,2.0,1.0,-1
4322,Ti6O,mp-882,162,-8.281234648571429,4.681535103975327,-0.9071464244642848,107.54544365592493,0.0,4.749708999999998,5.113251889190675,0.0,1.0,-1
4323,TaFeTe3,mp-8848,11,-6.1322773029999995,7.4330858375539135,-0.1807406430000008,276.8320466391339,0.0,3.5379419999999997,10.389949360372505,2.0,1.0,-1
4324,SnSe,mp-8936,129,-4.1390249925,2.90873026241068,-0.3862833261718753,225.69212521121585,1.6171,4.3219389999999995,12.082564999999999,2.0,1.0,-1
4325,TlBS2,mp-8946,166,-4.79288557875,5.171493693401975,-0.7961294576041672,538.1372654393514,1.7616000000000005,8.418540765408338,8.418541394442688,2.0,1.0,-1
4326,TaSe2,mp-8954,42,-7.079530366666668,4.399236768583486,-0.7963301715624999,127.90931308230229,0.0,3.475490163756761,12.595476752319186,2.0,1.0,-1
4327,Cu2WS4,mp-8976,111,-5.844865781428572,4.29948901624658,-0.8379373132142861,169.62375551661634,1.6202,5.455623,5.698991,2.0,1.0,-1
4328,TaNiTe5,mp-8998,63,-5.060586936428571,7.3926609575749005,-0.2956699421428561,394.2714647038008,0.0,7.209320372694018,15.254979999999998,2.0,1.0,-1
4329,NbNiTe5,mp-8999,63,-4.850251457142859,6.732362939379902,-0.3362591185714286,389.5099814061814,0.0,7.124498421602253,15.270289000000002,2.0,1.0,-1
4330,As2Se3,mp-909,14,-4.0745673255,4.2840218933406735,-0.11337307690624955,599.5944909233905,1.5414,4.504958,12.91540262084543,2.0,1.0,-1
4331,HgSeO3,mp-9228,62,-4.3624384725,6.428300579527932,-1.0551208227187499,338.44502170709154,2.5605,6.157618,8.692066,1.0,1.0,-1
4332,TlTe3Pt2,mp-9251,164,-4.420554624166667,9.499054995930504,-0.4316594258333328,341.70346758442315,0.11000000000000032,6.060653,8.068627288398691,2.0,1.0,-1
4333,HgS,mp-9252,154,-2.3436871066666667,6.995159723906293,-0.4553519907291668,165.68573061434714,1.7037999999999998,4.430708273013695,9.745591000000001,1.0,1.0,-1
4334,Al2Te5,mp-9254,12,-3.640196042857143,4.456917871194074,-0.3248165699999999,257.8085922923927,1.1257,7.797655665214385,10.55346596911138,2.0,1.0,-1
4335,TlPt2S3,mp-9272,164,-4.92785061,8.187477566401977,-0.7741109432291667,280.1867136628901,1.0255999999999998,6.210158,7.217837940763286,2.0,1.0,-1
4336,CdPS3,mp-9330,148,-4.154215427,3.1523476379824418,-0.8031863825892855,252.40335144149856,1.9889,8.196846223743192,8.19684644148547,2.0,1.0,-1
4337,C,mp-937760,69,-9.22260534,1.895030051680634,0.004175360000001405,21.0489923888276,0.4304999999999999,2.4681182219079383,4.526475107220297,2.0,1.0,-1
4338,Na(SnAs)2,mp-9378,166,-3.9644998439999997,5.058991994047823,-0.2340932966666664,134.65945063356622,0.0,9.662765588911334,9.662765680017962,2.0,1.0,-1
4339,Sr(SnAs)2,mp-9379,166,-4.356228158,5.486149864191503,-0.550855803333333,143.73688746984888,0.15589999999999993,9.389399164658514,9.389399798870423,2.0,1.0,-1
4340,TaNi2Te3,mp-9391,11,-5.834539929999999,7.839498390909798,-0.3598809666666665,288.55181527113683,0.0,3.716157,10.533736387915258,2.0,1.0,-1
4341,HfTlCuS3,mp-9396,63,-5.798589939166668,6.906792155990901,-1.3257535890625,260.9119321664439,0.7967000000000004,7.438868828558077,9.759997,2.0,1.0,-1
4342,Li(BH)5,mp-941221,181,-5.0185921722727285,1.0092886965773695,-0.3363589879333328,651.874097146624,4.9993,7.087842666830647,14.983214000000002,1.0,1.0,1
4343,AuF3,mp-942,178,-3.226190235,6.203961699415571,-1.3423072496425,407.8491859434718,1.5542999999999998,5.323642681861829,16.616946,1.0,1.0,-1
4344,YTe3,mp-945077,63,-4.907221825,6.368255470249609,-0.9331283491666662,245.99703813014838,0.0,4.347122,13.199408848009256,2.0,1.0,-1
4345,TcS2,mp-9481,2,-6.830594826666666,4.248826751628032,-1.0617282787500006,253.45650891950265,1.1825,6.408025,7.539926076273757,2.0,1.0,-1
4346,Cd2TeCl2O3,mp-950214,56,-4.04184027390625,4.060727690473788,-1.5126179226899998,1541.9020980858884,3.3714,8.370792999999999,16.058112,2.0,1.0,1
4347,Tl2PAuS4,mp-9510,11,-4.10027163125,5.870987142438443,-0.6874675276339293,432.7236434910741,1.2994000000000003,6.625653999999999,9.552453748212443,1.0,1.0,-1
4348,GeAs,mp-9548,12,-4.668993054166667,4.812662479027046,-0.02791992416666685,305.483880406514,0.6389,8.542587141074126,9.902348462066966,2.0,1.0,-1
4349,VS2,mp-9561,164,-6.635154683333332,3.3085090518000317,-1.291859415416667,57.75432927961985,0.0,3.193885642512111,6.537552,2.0,1.0,-1
4350,AlTlSe2,mp-9579,140,-4.0190302525,5.885180658576794,-0.7442673111718752,219.678110165848,0.9171999999999998,6.670090075400183,6.670090075400183,1.0,1.0,-1
4351,TlGaSe2,mp-9580,140,-3.65982309125,6.488532044434674,-0.5644302317968748,221.12753517614968,0.8691,6.672198242763474,6.672198242763474,1.0,1.0,-1
4352,TaMoN,mp-9587,129,-11.109239751666665,12.824274730004866,-0.8906088024599997,75.33241832725706,0.0,3.0946689999999997,7.8659919999999985,2.0,1.0,-1
4353,S,mp-96,13,-4.136449866875,1.4777529035873205,0.0,1152.997853241063,2.7405,9.248054,13.642060999999998,0.0,1.0,-1
4354,Tl4SnS3,mp-9622,130,-3.5703143509375,7.124289083592192,-0.5859201789843755,962.5684442809004,0.6965999999999992,8.14444,14.511395000000002,2.0,1.0,-1
4355,NbS2,mp-966,160,-7.1341335999999975,4.076617267639984,-1.4517053420833328,63.96603525608961,0.0,6.8162109335513525,6.8162109502271875,2.0,1.0,-1
4356,BiS2,mp-971673,12,-4.310761945833334,6.022076048085303,-0.6987572645833335,301.2319904787284,1.1894,8.240615288324168,11.627245865731444,2.0,1.0,-1
4357,C3N4,mp-971684,63,-8.42382443,1.943884201227132,0.07477997721142872,314.56071258096733,1.2641000000000002,7.132930503366059,7.137645,2.0,1.0,-1
4358,VBr2,mp-971787,164,-4.9721730766666665,4.065954415128114,-0.8529200266666669,86.07026599076859,1.1853000000000002,3.845394959937016,6.7211050000000006,2.0,1.0,-1
4359,Tl(IO3)3,mp-972032,148,-4.331543271153846,5.644025890677322,-0.8588755754807692,429.01454629162964,2.2066,7.602510942521095,7.602511538672992,2.0,1.0,-1