,pretty_formula,task_id,spacegroup.number,final_energy_per_atom,density,formation_energy_per_atom,volume,band_gap,min_abc,max_abc,Dimension,Dim,is_uv
2511,Ta3Te14Pd3,mp-505132,11,-5.0904914025,7.653378321816291,-0.3345318354999989,1149.2816838064232,0.0,3.7957400000000003,21.261016996242205,2.0,1.0,-1
2512,Ta4Co2PdSe12,mp-505133,12,-6.4235762431578936,7.136234635229869,-0.6983885772697369,441.0889698862764,0.0,7.216173769417765,19.486877158333296,2.0,1.0,-1
2513,Nb3SiTe6,mp-505137,62,-5.941112266749999,6.382215208956647,-0.4822087947500002,1116.0825773621796,0.0,6.418526,14.940604,2.0,1.0,-1
2514,NbTe4Ir,mp-505164,31,-5.65583196375,7.969474415290768,-0.4036754337499993,663.0287429490318,0.0,3.824614,13.61997,2.0,1.0,-1
2515,Ta3SiTe6,mp-505206,62,-6.372676748250001,7.96475586863241,-0.3868314992500004,1114.5897688388916,0.0,6.409516,15.025444,2.0,1.0,-1
2516,CdInBr3,mp-505222,62,-2.5071284615000002,4.9059799311838015,-0.7900578395000001,632.186664579506,2.2578,4.199104,15.681056,1.0,1.0,-1
2517,Ru(OF3)2,mp-505242,206,-4.617690494722222,2.6947311877405253,-1.5730636730155565,608.9683262088638,0.0,9.248519113873042,9.248519113873042,0.0,1.0,-1
2518,Te10Mo3I10,mp-505260,2,-3.683366142391304,4.6127601130264,-0.23945029282608704,2039.5955521111082,1.178,11.190864,18.14553302308516,0.0,1.0,-1
2519,PtF6,mp-505319,62,-3.5510553921428567,4.825305493788912,-1.4661684617342858,425.44883280773,0.0,5.062652,9.586922999999999,0.0,1.0,-1
2520,InSeI,mp-505357,88,-3.128634846458333,4.378034780350969,-0.5380989055729165,1946.0997315004192,1.4358,14.635270975048494,14.635270975048494,1.0,1.0,-1
2521,AuBr,mp-505366,138,-2.59140174625,7.209653513094369,-0.13599770624999996,255.07711036667843,2.0580000000000003,4.37978,13.297405,1.0,1.0,-1
2522,AsSeI,mp-505373,14,-3.397585446666667,4.683893021127653,-0.1712379474479165,398.1783840825899,1.3285,4.014769,13.798661639982988,1.0,1.0,-1
2523,FeS,mp-505531,129,-6.8096504925,4.1403373626812,-0.8381541190625006,70.51502163112309,0.0,3.5955550000000005,5.454435,2.0,1.0,-1
2524,Bi2Se4Cl7,mp-505564,2,-3.2972259025,4.0074658233214535,-0.9479434895919232,1627.5647584667875,1.0811000000000002,10.759083,13.932559575785953,2.0,1.0,-1
2525,Pb2CO4,mp-505702,19,-6.533792451071428,6.870072634664845,-1.7288300632142852,474.13888268133,3.4174999999999995,5.252644,9.502661999999999,1.0,1.0,1
2526,NClO,mp-505727,62,-5.0140880025,1.6209155132195845,-0.5300917914633333,268.23703500393583,1.9908,4.235032,11.527286,0.0,1.0,-1
2527,Pb3(ClO)2,mp-510030,62,-4.73318074,6.8002146995305015,-1.5707558684314284,707.6650238247809,2.7960000000000003,5.946073999999999,12.125103,1.0,1.0,-1
2528,Cs3O,mp-510262,193,-2.664970715,2.7167970109746684,-0.9320025687607756,506.9585332231599,0.0,7.525606,8.819625854613617,1.0,1.0,-1
2529,Pb3SeO5,mp-510293,36,-5.471622902777778,7.340013468822857,-1.4869362326215283,353.1724833240566,2.4633000000000003,5.898421,7.739765553496113,2.0,1.0,-1
2530,In5Se5Br,mp-510346,31,-3.51499942,5.616386405143147,-0.5263719128835224,620.1722189986292,0.9157999999999996,4.1761919999999995,15.5952,2.0,1.0,-1
2531,CrO3,mp-510421,40,-6.62043992375,2.3980401680812062,-1.5261789546874995,138.48345311094684,2.3076,5.052288048909425,5.831350000000343,1.0,1.0,-1
2532,Ta4Te16Pd3,mp-510426,12,-5.262667174782608,7.805559975312634,-0.3381640952173914,656.2225352194433,0.0,11.11121089727974,18.107758645359176,2.0,1.0,-1
2533,Zr(MoO4)2,mp-510456,164,-7.731762511818181,3.371914001693188,-2.537007017272728,202.45067979349997,3.1226000000000003,5.9598656889659845,6.581360000000001,2.0,1.0,1
2534,V2O5,mp-510568,11,-7.412333229285713,3.589614670078475,-2.2648847316071428,168.273685724939,1.734,3.61438,7.303074597461674,2.0,1.0,-1
2535,Fe3C,mp-510623,62,-8.603551238125,7.8335255608753664,0.055646096874999884,152.23931894937348,0.0,4.490844999999998,6.739307000000001,2.0,1.0,-1
2536,Cs4Sn2Au7,mp-510696,166,-3.0204191392307687,8.276083561163004,-0.365194217824934,430.9428146153159,0.0,10.868491780723671,10.868492079559012,2.0,1.0,-1
2537,InTeO3F,mp-510727,14,-5.338171254166666,5.568418886234493,-1.996082720823333,369.07786349211136,3.241,5.5182160000000025,8.314253491142846,2.0,1.0,1
2538,NbSe3,mp-525,11,-5.8064981683333325,5.7926036520347095,-0.6592383000911456,567.2300753015284,0.0,3.515248,15.843259680927408,2.0,1.0,-1
2539,Hf3(Bi5Cl9)2,mp-530409,173,-4.368602785483871,5.533183230817057,-1.4221115844735486,1958.7457920623035,0.0,11.16521,14.23279745013246,0.0,1.0,-1
2540,Tl4SnSe3,mp-531170,4,-3.3775393215625,7.706464467844692,-0.3845495455664061,2022.21593226095,0.6625000000000001,8.68089,26.806232491220733,2.0,1.0,-1
2541,Zr3(Bi5Br9)2,mp-531975,173,-3.824360304838709,5.626466808847413,-0.7918402174193548,2244.0196627274267,0.0,11.656884,14.909283397041188,2.0,1.0,-1
2542,Tl9SbSe6,mp-532270,75,-3.23867830625,7.951136398899917,-0.3412191233789064,2034.1053705966879,0.0,11.867133,14.443812,2.0,1.0,-1
2543,CdPS3,mp-5328,12,-4.1544576110000015,3.165744225619315,-0.8034285665892853,251.33524758457213,2.1211,6.299474376189573,7.593021834207116,2.0,1.0,-1
2544,Fe(PO3)5,mp-540145,11,-6.9121377173809515,2.3561295917193967,-2.317451326028912,635.2901361112079,0.5433999999999999,5.2286150000000005,13.806308,2.0,1.0,-1
2545,Te7(OF5)6,mp-540553,2,-4.303014543488372,3.827250452739788,-2.2078144658883723,676.4717961912432,2.3841,9.103319,9.350858313207723,0.0,1.0,-1
2546,NCl3,mp-540572,62,-2.98073528875,1.6389680711637291,-0.052229009289999816,1463.3984686723447,2.1637,8.509661,17.430196,0.0,1.0,-1
2547,Ti4Tl2O9,mp-540598,12,-7.982890383666668,5.72672999449808,-3.0151395006388886,431.5976699763295,2.7434,9.896479305102444,12.214761994898836,2.0,1.0,-1
2548,Nb3Se5Cl7,mp-540615,11,-5.029486552333334,3.5851529984219206,-1.2587912626359177,853.8003736207105,0.9467,8.230838,12.793330000000001,1.0,1.0,-1
2549,RhF5,mp-540622,14,-4.0633637135416665,3.6710304948791386,-1.6521872903666666,716.1292873148253,0.0,5.69259,12.64043526258214,0.0,1.0,-1
2550,GeSe2,mp-540625,14,-4.102437835208334,3.8238334691516886,-0.2308208984375,1601.9688735251596,1.4382,7.200197999999999,17.250894,2.0,1.0,-1
2551,Al(TeCl2)2,mp-540628,61,-3.4980019841071432,2.763822470406509,-1.3483474702557143,2037.9249170160208,1.3285,11.675701,14.279942000000002,0.0,1.0,-1
2552,Al2Te2Cl7,mp-540629,14,-3.6187073322727272,2.46447211823622,-1.5682791179836364,1502.1066807611637,1.4057,9.550737,13.739404205458696,0.0,1.0,-1
2553,WOF4,mp-540636,12,-5.77067707875,4.752822027995914,-2.681511666418333,385.4817124768397,3.119,5.4322194862670985,8.758546206010962,0.0,1.0,1
2554,Sn4SI6,mp-540644,12,-3.1518891945454546,5.011310759301236,-0.5468571057386366,840.5443755858996,1.3399,7.663845383729567,25.767328422083594,2.0,1.0,-1
2555,Sb(S8I)3,mp-540656,160,-3.899048455,2.0819511409836533,-0.6114486017857149,1014.558473417124,2.384,15.252337684803107,15.252337859606342,0.0,1.0,-1
2556,BS2,mp-540668,14,-5.378349950416666,1.5563901888633156,-0.8365594488888887,1279.2931652282402,2.5545,4.922928,21.91559104949616,0.0,1.0,-1
2557,SeCl4,mp-540675,15,-2.521515875,2.2880155702732865,-0.8192527980767501,1281.8113148334126,3.0391,10.146597373944083,15.946189252146134,0.0,1.0,1
2558,Ge3(BiTe3)2,mp-540687,160,-3.816674166363636,6.583359946465029,-0.1340416422727273,353.49937393890036,0.03500000000000013,22.03874184471632,22.038741906461386,2.0,1.0,-1
2559,Al2CoCl8,mp-540759,15,-3.9293169409090902,1.9161880332350991,-1.6902008255527272,687.236733834859,0.3448,9.9162843901415,11.6401868582875,1.0,1.0,-1
2560,FePCl8,mp-540760,57,-3.5801976069999997,1.9296608847264096,-1.1887879514651432,1275.114571910744,1.4434,6.337797,14.401929999999998,0.0,1.0,-1
2561,OsO4,mp-540783,15,-7.182624333,4.509052699416657,-1.5406250679999989,187.24769469319926,3.2991,5.439724753897388,8.958920870488921,0.0,1.0,1
2562,PbI2,mp-540789,166,-2.9186919766666666,5.460888411327833,-0.6651345433333334,280.36586623300576,2.4125,15.184869701945455,15.184869710872727,2.0,1.0,-1
2563,Ge2S3Br2,mp-540792,2,-4.005075475,2.775149700032609,-0.7280928477678579,960.4470681413948,2.4625,9.432972999999999,10.737259966419225,0.0,1.0,-1
2564,Cs2Sn2O3,mp-540796,62,-4.950518924285714,4.59748919416529,-1.7295268013731524,796.3803048572412,2.5497,6.21534,13.960714999999999,2.0,1.0,-1
2565,S3(NO7)2,mp-540798,9,-5.925769045526316,2.0856658236474424,-1.411914806665,554.4509541600063,1.4221,7.75017974116949,10.574694927386462,0.0,1.0,-1
2566,Tl2Ge2Se5,mp-540818,15,-3.8448724222222217,5.506312827956479,-0.35054808241319435,1144.5748883071174,1.4048,9.284032097341543,11.337301588306847,2.0,1.0,-1
2567,FeClO,mp-540828,59,-5.396129026666666,3.3119348467930223,-1.6506225848366671,215.18723367053192,1.9144,5.0790887635556246,9.00368809394578,2.0,1.0,-1
2568,RuF5,mp-540829,14,-4.655697052708333,3.5857738986700065,-1.9261736653666663,726.3561981197093,0.6512000000000002,5.633451,12.831773339381034,0.0,1.0,-1
2569,OsF5,mp-540830,14,-5.123930873958334,5.092809890206406,-2.06891668745,743.9858316850932,0.7152000000000001,5.697575,12.878734124233056,0.0,1.0,-1
2570,TlPF6,mp-540850,205,-4.87496908125,4.454444859252479,-2.8376891257139283,520.9225020675274,6.6195,8.046204,8.046204,0.0,1.0,1
2571,As2P2S7,mp-540883,14,-4.651986792727271,2.260666813750744,-0.610556101728897,1281.7511416241325,2.6133,8.631809,12.512329979590533,0.0,1.0,-1
2572,YCl,mp-540884,166,-5.646387235,3.5669888379935517,-1.7862261899633332,115.78546392009918,0.0,9.679535410779849,9.679535428561124,2.0,1.0,-1
2573,CrTe3,mp-540922,14,-4.904763020625,5.937552872883343,-0.13402545562500026,972.7858267706987,0.17140000000000022,8.193868,11.673185128440995,2.0,1.0,-1
2574,NbTeI3,mp-540924,13,-4.021820559,5.026952707109515,-0.4584917959999998,794.3969295721472,0.5118,7.469614,13.704938853028604,1.0,1.0,-1
2575,Hg2AsF6,mp-540925,14,-3.577389483611111,5.810667888510214,-2.045191712737777,674.5323391880889,0.7400000000000001,5.576503,11.871731,0.0,1.0,-1
2576,Pb5(IF4)2,mp-540938,160,-4.416606643333334,7.543002968366897,-2.2182291999680004,317.40128819957636,2.9704000000000006,19.62513147809922,19.62513152520128,2.0,1.0,-1
2577,SeBr,mp-540943,14,-2.65674817875,3.3964783277778463,-0.0903291699218749,621.349180694308,1.8382,5.318246,15.241087,0.0,1.0,-1
2578,Bi5IO7,mp-540977,12,-5.455272457307691,8.16352389790811,-1.5557461152884626,522.2753922900947,2.4650000000000003,9.705780054513548,13.49334183214792,1.0,1.0,-1
2579,Te6Mo(OF5)6,mp-540984,2,-4.45591267,3.6790705411633233,-2.2637046365860467,689.4280207489716,2.7158,9.350113,9.467278436408533,0.0,1.0,-1
2580,FeTeCl7,mp-540997,1,-3.4070523177777776,2.440718188187561,-1.1414678014244446,587.2986346710078,1.2736,6.789467999999999,10.33099962020549,2.0,1.0,-1
2581,FeTeBr7,mp-540998,1,-2.9940017605555562,3.6235113647914488,-0.4304695838888889,680.7780961308894,1.0711,7.05362,10.925805436307842,2.0,1.0,-1
2582,TiI4,mp-541013,15,-3.526296582,4.366869075159257,-0.7279880866666666,422.4556900011817,1.1083000000000005,7.005263403949419,8.259616239458405,1.0,1.0,-1
2583,Te7As5I,mp-541032,8,-3.6052660815384616,5.623785441139458,-0.003519070000000222,411.8177279963816,0.5563000000000002,7.725136269634342,14.572316886055427,1.0,1.0,-1
2584,SiI2,mp-541053,14,-3.129676486666667,3.164823626149329,-0.30523006999999985,2958.122066643363,2.2811,11.592207,17.285839016082065,0.0,1.0,-1
2585,HgNO2,mp-541067,14,-4.8563201175,5.275218242335571,-0.66944924497,310.4944232346791,2.2563,4.661167,10.74107,0.0,1.0,-1
2586,Ta2NiSe5,mp-541070,63,-6.60408401875,7.167216954242418,-0.7321778527148437,377.82742264016633,0.002899999999999903,7.036689119329061,15.786864000000001,2.0,1.0,-1
2587,Nb2Hg3S(O2F5)2,mp-541093,43,-5.3569521325,5.0136944473627265,-2.56821191975125,711.1735935179636,2.3641,9.3147968087078,12.313504641779652,1.0,1.0,-1
2588,Ta2Hg3S(O2F5)2,mp-541094,43,-5.6697022585,5.837491082153576,-2.7053147867512504,710.9890943643375,2.4424,9.306227817609294,12.309121503538424,1.0,1.0,-1
2589,Sc6C2I11,mp-541102,2,-4.984590232368421,4.365134162302814,-1.1312999799999996,1285.5608966350105,0.3926000000000003,9.325467,14.610589510330277,2.0,1.0,-1
2590,Nb2Se9,mp-541106,2,-5.208600380454545,4.62052664042187,-0.5117082550994315,644.3398968068625,0.8003999999999998,8.525162,8.840560471077668,1.0,1.0,-1
2591,AlGaCl4,mp-541111,14,-3.652035611666667,2.2176614638594567,-1.6871897384233334,714.3850165231662,4.2234,7.277469,11.705552719176698,0.0,1.0,1
2592,TeAuBr8,mp-541134,2,-2.2103402095,4.072531072981299,-0.25908073049999986,785.960940494965,0.8237,8.288705,10.883043011772212,0.0,1.0,-1
2593,VS4,mp-541155,15,-5.6753620415,2.4322466278602928,-1.0801889339999995,489.3765099883814,0.9528000000000004,7.306090181142031,8.621207516219581,1.0,1.0,-1
2594,Nb3SI7,mp-541158,14,-4.727228341136363,4.872308736373211,-0.686774405511364,1634.6895277904955,0.5958000000000001,8.050613,16.115277044765225,2.0,1.0,-1
2595,Te3Pt2,mp-541180,166,-4.691245162,10.25151555498079,-0.3769015199999998,250.41049869120042,0.0,17.691180875037173,17.691181215355012,2.0,1.0,-1
2596,Ta2NiSe7,mp-541183,12,-5.994398446,7.053359505032987,-0.5976912176406252,458.2831437718049,0.0,7.5491015467055425,18.649523380690077,2.0,1.0,-1
2597,P4Se3,mp-541189,62,-4.642599494285714,2.5415412450435784,-0.051045511616709616,1885.7252468416045,2.1601,10.606953,14.950322,0.0,1.0,-1
2598,Hg7Cl2O3,mp-541193,57,-2.062259433125,8.568749858782379,-0.6147210235641666,1180.595923815312,0.9253,6.636811,14.860166,2.0,1.0,-1
2599,As2S3(NF6)2,mp-541204,5,-4.674654929210528,2.78933015832847,-1.901562698074473,597.7381158516039,2.242,7.6995329753013575,10.890525932612116,0.0,1.0,-1
2600,Sb3O2F5,mp-541240,13,-5.2200332925,4.509059656690215,-2.421924759845,725.1489078013948,3.7837000000000014,6.087159,13.460850035260995,2.0,1.0,1
2601,SbBr5F6,mp-541259,15,-3.244838854583333,3.172592487807427,-1.508427626011667,665.0027401823622,1.7464,7.475758732784254,12.612942767288091,0.0,1.0,-1
2602,InGaBr4,mp-541283,13,-2.8860840070833333,3.673829293680699,-0.8315031083333336,911.4984146267924,2.9039,7.620525,13.336044461119045,0.0,1.0,-1
2603,Ge3(Te3As)2,mp-541312,166,-3.87350975,6.084932588388326,-0.0510437540909091,309.28754639585253,0.5336000000000007,20.58598780494781,20.585988180649114,2.0,1.0,-1
2604,As2Se2S(NF6)2,mp-541335,5,-4.605529582894737,3.200700234182985,-1.8300245506238155,618.2312389980026,2.2391,7.793208318646821,10.942768897434778,0.0,1.0,-1
2605,PtF5,mp-541341,14,-3.719526755208333,5.333644865523804,-1.5239170253666667,722.4816334739328,0.0,5.690914,12.772500789508884,0.0,1.0,-1
2606,P4S3I2,mp-541352,2,-4.268496404166666,2.3928920388011545,-0.3662588179067462,1315.4421853322854,2.2079,7.763926,21.770824793537077,0.0,1.0,-1
2607,Tl4V2O7,mp-541368,164,-5.982877820769232,6.709966261905043,-1.831333025288462,255.24717307204202,2.6163,6.094112168435366,7.936142,2.0,1.0,-1
2608,Pt(OF3)2,mp-541474,206,-3.859655503055557,4.323770562572976,-1.1709711196822228,523.9550960036087,0.017999999999999794,8.796407087725763,8.796407087725763,0.0,1.0,-1
2609,TlPt2Se3,mp-541487,164,-4.607140871666666,9.252518493291248,-0.4419403995052077,298.43207681131963,0.6746999999999996,6.008336,7.573215615184411,2.0,1.0,-1
2610,W2Se17Cl12,mp-541510,2,-3.8464825687096775,3.487403378796472,-0.6079999951278634,2033.5903347365447,0.0,11.933549000000001,13.928357630043536,0.0,1.0,-1
2611,ReSe2,mp-541582,2,-6.878273383333332,8.378113152665701,-0.3994900032291671,272.82339923520453,1.2357999999999998,6.6699100000000024,7.199982139513542,2.0,1.0,-1
2612,ZrPb2F8,mp-541593,62,-5.794863851363636,6.7571670174442415,-3.309646047683636,646.4183157968042,5.2294,5.517271,11.835745,1.0,1.0,1
2613,GeBr2,mp-541610,14,-3.2042740883333334,3.64196492407744,-0.5719804433333332,847.869747237202,2.5976,7.1012020000000025,13.230401760871553,2.0,1.0,-1
2614,ReSbOF9,mp-541654,14,-5.338007715625,4.234275465928732,-2.5376622907883344,776.4135201204327,1.0119,5.7846400000000004,12.978013601119473,0.0,1.0,-1
2615,AuCl2,mp-541656,2,-2.57422812,4.94910132083456,-0.6470336221733334,359.51000948187965,0.9647,7.150529,7.3505279560788015,0.0,1.0,-1
2616,Nb(SeBr)2,mp-541667,2,-4.8348135580000005,4.70823036999388,-0.7614173429375001,289.6521098138008,1.0469,6.818328999999999,7.921210219961657,2.0,1.0,-1
2617,Ni4(Bi4I)3,mp-541751,63,-4.04454802763158,9.032289746275133,-0.13017980210526425,1148.3869076438687,0.0,8.301934123812838,34.930536,2.0,1.0,-1
2618,Te2MoCl12,mp-541756,148,-3.2875487697777777,2.7002210665661988,-1.1423183290524443,1432.699124694812,0.005700000000000038,14.137819458533945,14.137819879814177,2.0,1.0,-1
2619,Ta2Se17Br12,mp-541758,2,-3.6942107891935487,4.000105507002878,-0.3784311485433465,2211.002386104564,1.3839,12.317985,14.173443198382286,0.0,1.0,-1
2620,Bi4RuI2,mp-541771,87,-4.197033925,7.398257647953588,-0.21381219285714284,534.5504066745584,0.4790000000000001,9.46095548984652,9.46095548984652,1.0,1.0,-1
2621,Bi4RuBr2,mp-541772,12,-4.332230127857144,7.69849635227304,-0.3167472742857146,473.15176904474515,0.5697000000000001,8.893710777007367,11.060489074624684,1.0,1.0,-1
2622,Tl(MoO3)3,mp-541775,12,-6.737899573846152,5.314882101557791,-1.9289325516346143,397.53712193511876,0.9766999999999996,6.578717663548117,8.64807497520743,2.0,1.0,-1
2623,GePdS3,mp-541785,12,-4.792431533999999,3.8634438666035966,-0.7480556808749995,236.61359996867282,1.3728,7.757202508462055,9.397199990535745,1.0,1.0,-1
2624,P2S5,mp-541788,2,-4.661245057142857,1.7211012527759617,-0.6338849061096938,857.8047548067908,2.5773,9.678889,9.824867245824088,0.0,1.0,-1
2625,NbSeI3,mp-541817,15,-4.1647179075,4.823098900784123,-0.5308670349687497,760.9881925161824,0.6478000000000002,8.363874635132332,13.842163403341837,1.0,1.0,-1
2626,Ti(AlBr4)2,mp-541826,15,-3.656487840909091,3.018289368145567,-1.0672100230303032,815.4039456610492,0.0,10.47470128043874,12.578017864625965,1.0,1.0,-1
2627,Bi2Se3,mp-541837,166,-4.03978233,7.0560723076736975,-0.3862217194062495,154.10680097779445,0.5434000000000001,10.421668506927766,10.421668910600836,2.0,1.0,-1
2628,P4O9,mp-541846,167,-6.973432208269231,2.3214559982127234,-2.3684989263873626,766.4865952819322,5.5685,10.452761498670581,10.452761540662447,0.0,1.0,1
2629,Te3MoCl16,mp-541868,36,-3.15278301125,2.5722751750691737,-1.135924938858,1350.480659323777,0.05149999999999999,10.479260328043964,12.59573,1.0,1.0,-1
2630,TaTeCl9,mp-541877,2,-3.8770676318181816,2.977624696640292,-1.4874551453945453,700.0181275941627,2.6483,6.673817999999999,11.76862770922957,1.0,1.0,-1
2631,In3Te4,mp-541885,166,-3.215625104285714,6.283158492725109,-0.2401601171428572,225.92434440144257,0.0,14.07137905928065,14.071379670770733,2.0,1.0,-1
2632,HfNCl,mp-541911,166,-8.582878554999999,6.899026436060238,-2.195041216879998,109.73124558308191,2.2366,10.087728101328764,10.08772824642159,2.0,1.0,-1
2633,ZrBrN,mp-541912,166,-7.77849192,5.1151185487225534,-1.7327921341266677,120.20186785702029,1.7675999999999994,10.418425208327793,10.418425396896836,2.0,1.0,-1
2634,Zn(InS2)2,mp-541937,160,-3.88834565,4.169268879786114,-0.9376212874999996,168.59418518077754,0.13580000000000014,12.83145211748152,12.831452213776664,2.0,1.0,-1
2635,GaN5O14,mp-541950,5,-6.103107209,2.1770920531580487,-0.9916185588450006,277.44253146087533,1.2568,7.324114859557023,9.170756568642524,0.0,1.0,-1
2636,Bi9Rh2I3,mp-541979,11,-4.106675906785714,8.378507602519807,-0.2273214514285716,978.0089619470103,0.5161000000000007,8.14973,13.897374,1.0,1.0,-1
2637,V2Se2O9,mp-541993,14,-6.3993146830769225,3.5950614360704427,-1.7834205050721164,746.0475451926955,2.1685000000000003,8.181693,10.723589328700582,2.0,1.0,-1
2638,Tl3B3Se10,mp-542058,2,-4.108786675625,5.470423281244893,-0.22864611130859336,871.2953826943883,1.3114000000000003,7.311223,14.862303837551801,0.0,1.0,-1
2639,Hg3Se3O10,mp-542115,4,-4.3940644034375,6.487252922652949,-1.0281000149707031,511.2448660156561,1.8689,5.447457,11.392518241645876,2.0,1.0,-1
2640,Mo2NCl7,mp-542135,2,-5.060718992,2.558219786691474,-1.218647483520001,1178.9144205090524,0.1003,9.490195,13.725317570422698,1.0,1.0,-1