,pretty_formula,task_id,spacegroup.number,final_energy_per_atom,density,formation_energy_per_atom,volume,band_gap,min_abc,max_abc,Dimension,Dim,is_uv
1843,SnI2,mp-27194,12,-2.844591024444445,4.969528790340791,-0.4920586627777779,373.4250946210947,1.8334,7.751395622741108,11.166451417227812,2.0,1.0,-1
1844,AuSeBr,mp-27199,62,-2.9577646354166665,6.970285589305396,-0.1555247828645836,678.1593704815625,0.7669999999999999,7.1185350000000005,12.422410000000001,1.0,1.0,-1
1845,B13H19,mp-27200,14,-4.781613848203125,0.8475502746725434,-0.1445172986077079,1251.5028365891533,2.7671,6.684869,20.203820450383336,0.0,1.0,-1
1846,B9H8S,mp-27202,14,-5.171262688194443,1.0847410788152438,-0.19873996067138847,841.5050199267737,4.1569,6.809774000000001,13.625623686204241,0.0,1.0,1
1847,TlCl2,mp-27205,88,-2.839080766666666,4.468099385701331,-1.2159624555066664,409.23766264452917,2.3141,9.445541557674023,9.445541557674023,0.0,1.0,-1
1848,Sb2IF15,mp-27212,14,-4.1403285556944445,3.521115936724232,-2.4130914944638895,1236.333235220152,3.8902,8.679932,15.193172,1.0,1.0,1
1849,AuBr3,mp-27213,14,-2.202646781875,4.8460943068884825,-0.15648149187500016,1197.0412087783916,0.8069000000000001,7.049571,20.812713000000002,0.0,1.0,-1
1850,CrI2,mp-27215,12,-4.538336703333333,4.469788261026912,-0.304645803333333,113.60744313344965,0.27790000000000026,4.402546717025613,8.096375499187339,2.0,1.0,-1
1851,Ge(BrF5)2,mp-27218,14,-3.537288673076924,3.2149545226022256,-1.8371054213,436.37624556595375,2.9327,5.132149,14.185896,1.0,1.0,-1
1852,As2SO6,mp-27230,18,-6.022245206666668,3.2317110823707527,-1.7705541522916668,285.58954270708824,4.443199999999999,4.856632,11.577126,2.0,1.0,1
1853,Li2TeO3,mp-27231,15,-5.312030663333333,3.5623440574913,-2.0290068184027765,353.29465022955566,3.675,5.4795081080272166,14.087944208896484,2.0,1.0,1
1854,Sb2I2F11,mp-27236,5,-4.079320255333333,3.7071607196843512,-2.283848309872667,316.3762567605739,0.0,5.583440073281436,8.009783939815168,0.0,1.0,-1
1855,BSBr,mp-27245,14,-4.663958106111111,2.0452189085764148,-0.7341887135416667,1196.2395951388526,3.6628,4.8207379999999995,18.72882406599189,0.0,1.0,1
1856,TlCdI3,mp-27252,62,-2.179846484,5.955839094947377,-0.6085303670000002,777.8845487563913,2.4254,4.497421,16.637704,1.0,1.0,-1
1857,Sb2(S2O7)3,mp-27256,2,-5.937413947758621,3.0220098221451472,-1.8596582055172408,848.2869769080472,4.2577,6.779567,12.952110085732205,2.0,1.0,1
1858,PBr3,mp-27257,62,-2.968575925,2.51656289810673,-0.3875595546428574,714.4415629929973,3.3482000000000003,6.961028,10.970765,0.0,1.0,1
1859,PCl3O,mp-27277,33,-4.259878326,1.7261840533509714,-1.575777473920286,590.0043965137277,4.6845,6.071253,9.902842999999999,0.0,1.0,1
1860,Hg3As2F12,mp-27292,14,-3.764968083529413,5.241141191568866,-2.1605045828988234,620.725185876835,2.6377,6.118012,11.563453301934722,0.0,1.0,-1
1861,ReCl4O,mp-27297,14,-4.9417834325,3.0934336792803765,-1.324184005715,1477.3382643512598,0.647,6.152725,19.749868555652945,0.0,1.0,-1
1862,SbBrF8,mp-27308,54,-3.82103161025,3.406920986554601,-2.1079987252020005,689.4808284399388,2.6921,5.9903910000000025,11.237241000000001,1.0,1.0,-1
1863,VF5,mp-27309,62,-5.245030737916667,2.601466547770234,-2.8275879480750006,745.2052140420572,2.9919999999999995,5.525908,17.404118,1.0,1.0,-1
1864,Nb2SeF14,mp-27312,14,-5.581172119117646,2.913708105449569,-3.0172766231766914,1209.9108762964847,4.8407,7.823616,17.597017,1.0,1.0,1
1865,NbSeF9,mp-27313,146,-5.2143245209090905,2.996429249867315,-2.8159456370957963,759.9967924487413,5.044899999999998,9.141319595527989,9.141319795195713,0.0,1.0,1
1866,SbClF8,mp-27314,2,-3.736631128,3.0830023529411856,-2.061905799278,333.07730272765593,3.1793,5.433116,10.637420706121619,1.0,1.0,1
1867,SbAsF8,mp-27317,11,-4.5970055075,3.460529770865645,-2.5817534359520002,334.61824896799646,3.8839,5.736665,8.358541,1.0,1.0,1
1868,Sb3(BrF8)2,mp-27318,15,-4.176753420714285,3.4712918502017116,-2.348674423525714,793.1863111934875,0.056200000000000035,7.882314350278668,14.812190919617025,0.0,1.0,-1
1869,ReCl4,mp-27340,13,-4.488277401,3.6696233320696097,-0.9962911826079996,593.7267286556844,0.0,6.432367,13.084165434771373,1.0,1.0,-1
1870,Re4Cl8O9,mp-27343,2,-6.337935389047619,3.629379632207008,-1.6703208284442848,536.4259405452293,1.0277,6.4330099999999995,13.014840839316824,0.0,1.0,-1
1871,Be(BH4)2,mp-27344,110,-4.135880854659091,0.6024926908335172,-0.2253272457766665,853.2424965321443,6.1876,10.698025501815929,10.698025501815929,1.0,1.0,1
1872,Al2Hg3Cl8,mp-27346,14,-2.9237746646153844,3.666815669747907,-1.5058515439292306,1701.57353373046,2.4938,7.300311,15.918303,0.0,1.0,-1
1873,BSF7,mp-27349,62,-4.854547717777779,2.263450656344841,-2.621632987291296,516.0800076949048,5.0319,5.815232,9.763841000000001,0.0,1.0,1
1874,SbCl2F3,mp-27353,14,-3.8703197443055566,2.803422154627933,-2.0539274784872226,1774.5690905853562,1.8671,10.822464,17.599151886580923,0.0,1.0,-1
1875,AsO2,mp-27356,62,-5.981870979166668,3.9540026347782997,-1.5983878650000003,359.2218167076737,3.3948,5.325336,8.961441,2.0,1.0,1
1876,Se2O5,mp-27358,14,-5.064383666428571,3.2650123763797256,-1.032933623705358,484.00487050689804,3.0247,4.856602,14.019350867316401,1.0,1.0,1
1877,Nb(SeCl)2,mp-27361,2,-5.076810246,3.9844402295760375,-1.1566442562414998,268.16775014694747,1.0272,6.4455849999999995,7.952064351462077,2.0,1.0,-1
1878,Nb(SCl)2,mp-27362,12,-5.425745881999999,3.040444404286217,-1.5147485365539992,248.981514932612,1.5930000000000002,6.449575142185181,7.413779639466227,2.0,1.0,-1
1879,SeOF2,mp-27367,29,-4.43823526125,3.074636492888286,-1.792565957743438,287.22611649838984,4.0951,5.774916,7.824889999999999,0.0,1.0,1
1880,SnClF,mp-27373,62,-4.236172174166667,3.915421436106792,-2.0081811856500003,293.7525674138254,3.6986,4.403681,10.537811999999999,1.0,1.0,1
1881,AgIO3,mp-27384,29,-4.143026988,5.655834880740223,-0.7243139830833328,664.1665981168334,2.4582,5.897216,15.511621,2.0,1.0,-1
1882,TlHg5Cl11,mp-27386,12,-2.075373779411765,4.9455317920305015,-1.0358199235799999,536.3237421992102,2.7263,6.688746027288673,9.640435463799184,0.0,1.0,-1
1883,KSb2F7,mp-27389,14,-4.7613224955,3.8367914771567095,-2.8300972591330003,719.4885280696429,4.1638,7.6447699999999985,10.997782282346973,2.0,1.0,1
1884,AlPd5I2,mp-27393,139,-4.51604385125,7.734447487922782,-0.4294175874999997,174.5226661232389,0.0,10.78168951905804,10.78168951905804,2.0,1.0,-1
1885,NiCl2,mp-27396,166,-3.7863210966666654,3.2213103020889697,-1.0237082188400002,66.80662417661625,0.0,6.729793185244849,6.7297937333821025,2.0,1.0,-1
1886,IrBr3,mp-27397,12,-3.74527952875,5.928656696405218,-0.30797701874999994,241.9553079983057,1.6317,6.47685424611825,6.9740822714978075,2.0,1.0,-1
1887,TlBr2,mp-27398,52,-2.53495210375,5.039757483011759,-0.6564500837499999,959.9729882310758,1.807,8.156797000000001,10.906239999999999,0.0,1.0,-1
1888,SbBr3,mp-27399,19,-2.868140784375,3.0927123829694905,-0.6081955693749999,776.3261540741295,3.4534,4.4630730000000005,14.099441,0.0,1.0,1
1889,SnAsF7,mp-27405,155,-4.618189775555557,3.756482687996773,-2.5501296425922217,433.1439937771858,3.4086,7.866225033726153,7.866225216181903,0.0,1.0,1
1890,Sn4P3,mp-27410,166,-4.653700907142857,5.636037689248044,-0.04253733510203972,167.2788309603802,0.0,12.184902189028929,12.184902815800418,2.0,1.0,-1
1891,TlP5,mp-27411,26,-4.929329145833333,4.0639802930565985,-0.024648764642857767,587.1604883839652,1.4193999999999996,6.521197,12.395946,2.0,1.0,-1
1892,Sn2BF7,mp-27430,62,-5.33352791025,3.5939245626180547,-2.869289268499667,704.5561441572072,4.398,5.4583699999999995,14.317782999999999,1.0,1.0,1
1893,Sn3BF9,mp-27431,14,-5.2311924634615385,3.9990589350324393,-2.808649498836667,893.4583826828157,4.362500000000002,7.7900649999999985,10.958989445056007,2.0,1.0,1
1894,ZrCl,mp-27440,166,-6.481173985,4.1319044352272565,-1.5803981816300006,101.81847650990929,0.0,10.055979110998043,10.055979575029028,2.0,1.0,-1
1895,As(IF2)3,mp-27445,2,-3.5222124325000004,3.6533774329128015,-1.7467667272140006,517.8141573843617,1.3464,6.071606,10.613244707010388,0.0,1.0,-1
1896,GaTeCl,mp-27449,58,-3.3929471941666667,3.904090200967616,-0.9178647244200002,396.0294172210266,2.1714,4.161416,15.905998,2.0,1.0,-1
1897,Al2PdCl8,mp-27452,14,-3.726425775909091,2.01498083320928,-1.6626220228254551,731.8095392135235,1.6806,6.907935,14.04285005970355,0.0,1.0,-1
1898,YCl3,mp-27455,12,-5.286558805,2.2995165865917744,-2.729552794111667,282.01137025879706,4.9757,6.993019416544545,7.06619981223189,2.0,1.0,1
1899,AlPS4,mp-27462,16,-4.868182913333333,1.6516397676739525,-1.0263793868452378,374.43731677694086,2.6710000000000003,5.7123029999999995,11.466788000000001,1.0,1.0,-1
1900,S8O,mp-27465,29,-4.346976481666667,1.71080477092297,-0.7881337701388892,1058.0496800047029,2.4236,8.532975,14.212353,0.0,1.0,-1
1901,NbSbF10,mp-27472,2,-5.375688022083334,3.2751764657883347,-3.006037387241667,410.32159607928185,4.3644,5.7933769999999996,9.902902488970543,1.0,1.0,1
1902,Sb2TeF14,mp-27473,14,-4.438167728529412,3.8174170572659,-2.5976380059799995,1108.5249660271122,3.9836,7.611064,14.565431,0.0,1.0,1
1903,WSCl4,mp-27475,2,-4.880832844166666,2.8034849330202265,-1.3064128035274998,423.7604748936717,1.9711,6.693469,8.376008491159139,0.0,1.0,-1
1904,TcOF4,mp-27477,176,-5.722598378888889,3.0443113197566984,-2.341184059890556,621.7974188539583,0.9972,8.289036999999999,9.306944055772766,0.0,1.0,-1
1905,Sn2OF2,mp-27480,12,-5.242024039,4.856631318048481,-2.2208421497260002,199.27722064025875,2.6657,5.227989050681439,6.229034260359306,1.0,1.0,-1
1906,Tl2O,mp-27484,166,-3.815362406666667,9.413254201538033,-0.8257052637500001,149.86114728489318,0.5717000000000003,13.338135927529187,13.33813635708306,2.0,1.0,-1
1907,Tc2O7,mp-27485,61,-7.415716229166668,3.11207188213836,-1.8111719956944456,657.3614975722237,2.6726,5.891361,14.269104,0.0,1.0,-1
1908,Te2AuCl,mp-27490,63,-3.10832643875,7.194598031918937,-0.4047428445649999,225.08869581618268,0.0,6.5220074264772965,8.80597,2.0,1.0,-1
1909,ScCl,mp-27507,166,-5.515480605,2.5470987880597598,-1.7223205641299997,104.84252931588208,0.0,10.115129313376078,10.115129653427928,2.0,1.0,-1
1910,MoOF4,mp-27511,14,-5.457725474375,3.0198122971974373,-2.58397396871,826.7271709512731,4.1737,5.650448,17.866939000000006,1.0,1.0,1
1911,Sc7Cl10,mp-27513,12,-5.396470237647059,2.4948905405582256,-2.051423561035294,445.41763827741966,0.0,10.050714341566076,12.664339434169195,2.0,1.0,-1
1912,SeO3,mp-27519,114,-4.9437162909375,2.9807413911378773,-0.8854893199609375,565.8164148074245,2.4589,5.552218,10.094958,0.0,1.0,-1
1913,VPCl9,mp-27523,67,-3.686362975,1.9760320853078115,-1.3425583639010392,673.9397820573138,0.12499999999999988,6.438917,10.487315565940458,0.0,1.0,-1
1914,PI3,mp-27529,173,-2.55437877125,3.359717132738262,-0.058047844642857616,406.9524935076319,2.3551,7.464843532963033,8.432797,0.0,1.0,-1
1915,As4S3,mp-27543,62,-4.5462139564285735,2.7805655930113518,-0.3954363534821432,945.673113545741,2.3035,8.866848,10.944586,0.0,1.0,-1
1916,SiTe2,mp-2755,164,-3.860337993333333,5.255403661801774,0.043633966666666524,89.50913574354044,0.0,3.7893541490151055,7.197908999999999,2.0,1.0,-1
1917,TlPbI3,mp-27552,63,-2.791133822,6.0402878620838445,-0.6618662430000004,435.6215032572197,2.3962000000000003,8.071428601821736,12.008534,2.0,1.0,-1
1918,Rb9O2,mp-27561,11,-2.234855227272728,1.9697843768162389,-0.6606609009090909,1350.8471898451207,0.0,8.434792999999999,14.087193,0.0,1.0,-1
1919,Te5(O2F11)2,mp-27575,88,-4.291687448870968,3.5522774861171773,-2.228743272457419,1047.0699107787548,2.8665,12.575136770920349,12.575136770920349,0.0,1.0,-1
1920,As(S2F3)2,mp-27578,14,-4.292783150625,2.5104899627292894,-1.8314759983195457,3356.6453499231793,0.0,13.694594,16.655277265170938,0.0,1.0,-1
1921,Li8Pb3,mp-27587,166,-2.7287401890909093,5.315384492278182,-0.3278925396969696,211.536437057784,0.0,11.100741239813225,11.10074153803087,2.0,1.0,-1
1922,CsB9H14,mp-27590,2,-4.687583092291667,1.573376134765894,-0.25565636025462624,515.7007395445187,3.7975,5.882789,10.104328089833732,1.0,1.0,1
1923,Bi4Se3,mp-27607,166,-3.9906543442857134,8.063953576309098,-0.2695298195758927,220.9126020696108,0.0037000000000002586,13.840290471391162,13.840290661877079,2.0,1.0,-1
1924,Na2PbO2,mp-27622,60,-4.558806518,5.18686988113508,-1.5921500298333335,730.3823430763694,2.4078,6.056671,17.171609,2.0,1.0,-1
1925,Te3Cl2,mp-27628,14,-2.9170291319999997,4.363337455416245,-0.5295081833040001,690.6608030654356,1.3668999999999998,7.552473,12.160528910658163,2.0,1.0,-1
1926,CrCl3,mp-27630,12,-4.93242649875,2.632721939321136,-1.578776398695,199.75890808518443,0.1521999999999999,6.060105320032401,6.580752454886903,2.0,1.0,-1
1927,TiBr4,mp-27634,14,-4.1196592225,2.6587863181411326,-1.2310195871666672,918.0427530377813,2.7916000000000003,7.4417839999999975,11.21976926073794,0.0,1.0,-1
1928,NiBr2,mp-27637,166,-3.413338793333333,4.972529824339205,-0.3953422066666666,72.96690490036616,0.4774999999999996,6.588868851209668,6.588868890011168,2.0,1.0,-1
1929,NiI2,mp-27638,166,-3.069542123333333,5.584908625525181,-0.1268214866666663,92.91510009711548,0.0,7.244777896943767,7.244778046505082,2.0,1.0,-1
1930,IBr,mp-27639,63,-1.66736051,3.4148139365621115,-0.08689093250000003,201.1316283220445,1.4375,5.008675269692077,8.816360000000003,1.0,1.0,-1
1931,Cd(IO3)2,mp-27640,19,-4.309018554166666,5.1355509054477135,-1.037362131666667,597.8157388931231,3.2733,5.7040169999999994,17.689443,2.0,1.0,1
1932,ReCl5,mp-27645,14,-4.126027202291667,3.3743217782407613,-1.007063524175,1430.947005723698,0.0,9.557813000000001,12.876718823720589,0.0,1.0,-1
1933,AuCl3,mp-27647,14,-2.4644213725,3.790952669122004,-0.7055627549449999,531.4589773971811,1.3933,6.929813,11.909903,0.0,1.0,-1
1934,Te2Br,mp-27648,62,-2.8091073329166663,4.9143762527548365,-0.16793119958333294,905.8374935162883,0.7690999999999999,4.0490910000000016,16.702413,1.0,1.0,-1
1935,RbB10H9,mp-27650,33,-5.106935811625,1.5205428277705215,-0.26033172496233303,1770.457270399836,4.4008,7.300889,19.067215,0.0,1.0,1
1936,Te2I,mp-27655,62,-2.662093419583333,5.055947467434204,-0.05855526124999985,1003.9651781104976,0.6635000000000004,4.164434,17.074691,1.0,1.0,-1
1937,Zn2(PS3)3,mp-27656,12,-4.35668163,2.3552295989527194,-0.7840920867028071,722.4217053396753,1.8233,7.1288640955810765,10.852228576995973,2.0,1.0,-1
1938,TiPCl9,mp-27664,2,-3.767952934090909,2.0606996393844645,-1.5321859642040692,641.2948073232162,2.1747,7.2772710000000025,9.863074788656226,0.0,1.0,-1
1939,IrCl3,mp-27666,12,-4.09451405625,4.889512785288924,-0.9445182186950004,202.80021103160462,1.9402,6.142372238200887,6.515188846710278,2.0,1.0,-1
1940,Y2Cl3,mp-27678,12,-5.54515419,3.4328857956278345,-2.206255158622666,274.91537850403085,0.8567000000000005,8.148977711710161,10.37221752317724,2.0,1.0,-1
1941,Tl4O3,mp-27684,11,-4.113801186428572,9.508465472167543,-0.9447142826785708,302.3092858203032,1.1951999999999998,3.5595589999999997,11.340912705459688,1.0,1.0,-1
1942,PH4Br,mp-27689,129,-3.599593181666666,2.3540322724163016,-0.2647333405085715,162.11481264823357,4.3612,4.369208,6.0913,0.0,1.0,1
1943,Sb4Br2O5,mp-27700,14,-5.256329949545455,4.972065192346587,-1.527404005568182,485.49424481429605,2.381,5.2472769999999995,13.815801183388714,2.0,1.0,-1
1944,InClO,mp-27702,59,-4.566137823333333,4.284666259431109,-1.8157377648366664,128.8774798790827,2.3707000000000003,3.577984,8.662753,2.0,1.0,-1
1945,InBrO,mp-27703,59,-4.372563303333333,5.104885409975443,-1.4944713904166662,137.08872531590416,2.0057,3.6882040000000003,9.009691,2.0,1.0,-1
1946,BiI,mp-27708,12,-3.000502120625,5.909474070789374,-0.2934786581250002,755.0586625254242,0.9808,8.274907719787635,21.61785074194625,1.0,1.0,-1
1947,VCl2O,mp-27712,71,-5.3872917025,2.729765549935128,-1.8484733294425,83.85341468799152,1.0646,7.017217252938447,7.017217252938447,2.0,1.0,-1
1948,VBr2O,mp-27713,71,-5.065242425,3.889864694090656,-1.3348862703125004,96.79653056585256,0.3904,3.654978575799453,7.602875523211138,2.0,1.0,-1
1949,KTlO,mp-27716,12,-3.779381916666667,5.793272210401878,-1.2068094514166667,148.75128317526259,1.2280000000000002,6.390492463527987,6.8246502779633325,2.0,1.0,-1
1950,As2S2F3,mp-27717,57,-4.508563482321429,2.9045297859482786,-1.5762967758671431,1239.3155880365491,2.3707000000000003,6.158225,20.20034,0.0,1.0,-1
1951,Pd(S3N)2,mp-27722,14,-5.0349385375,2.043654575404596,-0.3768534945566668,1062.2206513967185,1.237,8.55129,13.124846660286588,0.0,1.0,-1
1952,BPS4,mp-27724,23,-5.084108851666667,1.6117612325409585,-0.7533360017063492,175.19094309431068,2.2994,6.693683854837782,6.693683854837782,1.0,1.0,-1
1953,AuI,mp-27725,138,-2.47527234125,6.7578262817418695,-0.07632526375000026,318.32751561125417,2.0942,4.605302,15.009214000000002,1.0,1.0,-1
1954,SO2,mp-27726,41,-5.741653651666668,1.4003950306506645,-1.7535467168750003,151.92919187298403,3.2037,4.771293666055046,6.6912660000000015,0.0,1.0,1
1955,CCl2O,mp-27727,88,-5.0399871621875,1.5590507416570836,-1.0449501316300005,842.8413212061588,4.5842,12.266913990491377,12.266913990491377,0.0,1.0,1
1956,ICl3,mp-27729,2,-1.97125025125,2.4791121385303456,-0.6498588649450001,312.48534402747885,1.8148,6.017291,8.839655158740188,0.0,1.0,-1
1957,CrBr3,mp-27734,148,-4.45784914,3.9426479797871865,-0.8168923675000004,245.71947512281108,1.2905,7.776747068960452,7.776747345025424,2.0,1.0,-1
1958,GaSbCl6,mp-27735,14,-3.2808252928125,2.3794370425727545,-1.4457999674450002,1128.3199164337864,3.9056,7.931724000000001,13.650600398103519,1.0,1.0,1
1959,As2S2O9,mp-27739,14,-5.984429480384616,2.934926059784684,-1.7940290371153849,810.132186469412,4.0652,6.762588,17.58962457826983,0.0,1.0,1
1960,TeAuI,mp-27741,14,-2.785563249166666,6.725409382934577,-0.1384982208333335,445.88232775853584,1.0921999999999996,7.433025,7.891196788603424,2.0,1.0,-1
1961,BiF5,mp-27743,87,-3.985581465,4.846229250580584,-2.153450635158333,104.1548069308352,1.9043,5.3532976782700965,5.3532976782700965,1.0,1.0,-1
1962,PdI2,mp-27747,14,-2.99296725,5.45671607077568,-0.25033157000000017,438.48660625281616,0.9557000000000002,7.088158,8.977339,2.0,1.0,-1
1963,Be(B3H7)2,mp-27748,14,-4.428831500476192,0.7137675534682316,-0.18254213146095194,818.8085273726649,4.2788,8.640385,13.083325533293323,0.0,1.0,1
1964,In2(PS3)3,mp-27753,14,-4.567199925892857,2.8767531483796334,-0.7814760797385206,1411.070868872907,1.4404999999999997,7.4110210000000025,18.55166112318929,2.0,1.0,-1
1965,AlTl2F5,mp-27758,63,-4.939451533125,5.730455834989464,-2.9929974757437496,307.58975771017134,4.0710000000000015,6.3651421088880635,7.592248,1.0,1.0,1
1966,W3Br8,mp-27765,64,-5.149682332727274,5.422800536980791,-0.4251558118181817,1458.5011572142114,0.0,10.005145457419847,14.816947,1.0,1.0,-1
1967,RhCl3,mp-27770,12,-3.847635785,3.4898426924280828,-1.066170584945,199.14472262974445,1.5617,6.090913952929068,6.520898549053191,2.0,1.0,-1
1968,Nb3Br8,mp-27771,166,-4.874644931363637,4.8499553474862775,-0.9292515277272728,628.5805208454317,0.05900000000000016,14.676687809916382,14.676687902505114,2.0,1.0,-1
1969,Nb3I8,mp-27772,166,-4.385477124545455,5.5986487428005125,-0.5222029390909093,767.5647323406502,0.08309999999999995,15.566740171187673,15.566740483699277,2.0,1.0,-1
1970,NClO6,mp-27774,15,-4.907721024375,2.093644398898744,-0.5726815272675001,230.73214978849686,1.4273,5.882016436421868,7.3708860609295135,0.0,1.0,-1
1971,TcCl4,mp-27780,61,-4.09404697125,2.538048412909393,-1.0188422078579995,1255.1918004842098,0.7828999999999999,6.151825,15.441379000000001,1.0,1.0,-1
1972,TiBr2,mp-27785,164,-4.760888696666666,4.60203699739724,-1.0377736644444446,74.93474103993343,0.0,3.498868370235868,7.068014,2.0,1.0,-1
1973,SbAs2Cl13,mp-27786,36,-2.9527158421875,2.2333989268833814,-1.0935095454612502,1089.2204696964934,1.1842,9.879186871544084,12.183042,0.0,1.0,-1
1974,NbPCl10,mp-27787,2,-3.777184689583333,2.0931870036423748,-1.4394263005142858,759.0518470316106,2.2867,7.3478210000000015,14.176403754128726,0.0,1.0,-1
1975,TaPCl10,mp-27788,2,-3.98712106875,2.468375204930632,-1.5029899638476192,762.1329844845459,2.3387,7.3582100000000015,14.187009875266492,0.0,1.0,-1