pretty_formula,task_id,spacegroup.number,final_energy_per_atom,density,formation_energy_per_atom,volume,band_gap,min_abc,max_abc,Dimension,Dim
Ba6Na16N,mp-505213,229,-1.8092915204347824,2.095936697571555,-0.04839010155275348,955.3181284544144,0.0,10.746242499736734,10.746242499736734,3.0,-1.0
Zr9(NiP2)2,mp-505278,127,-8.323827647666668,6.537312838996103,-0.9809794826190492,539.6673282779577,0.0,3.705379,12.068318,3.0,-1.0
MnCu(Te2O5)2,mp-505342,133,-5.6823831371875,5.0544073580296995,-1.5192630498821993,1036.6895421869442,0.6566000000000001,8.968553,12.888547,3.0,-1.0
AsSeI,mp-505373,14,-3.397585446666667,4.683893021127653,-0.1712379474479165,398.1783840825899,1.3285,4.014769,13.798661639982988,1.0,1.0
K2LiInAs2,mp-505431,64,-3.260857265833333,3.499412588780624,-0.5609170490555554,663.9452286501602,0.6193,6.454445,10.236774112623175,3.0,-1.0
NaHfCuSe3,mp-505448,62,-5.363980873749999,6.138659888955441,-1.0541838454774295,543.0723660979262,0.3845000000000001,3.839033,13.723204999999998,3.0,-1.0
YSiPd,mp-505467,59,-6.701143267916668,6.511131409599559,-1.0105876201388888,455.81420648324683,0.0,4.340647,14.032103,3.0,-1.0
Ti5Si4,mp-505527,92,-7.588184153888887,4.254735424926698,-0.7905490246296298,549.0103040517487,0.0,6.708585,12.198843,3.0,-1.0
Mn2SiS4,mp-5056,62,-6.334084351785713,3.132343698087073,-0.9568434334729068,564.5247050473313,0.3543000000000003,5.942952,12.740219999999999,3.0,-1.0
In2Ag2GeSe6,mp-505607,9,-3.7026861231818176,5.396807383214333,-0.3602337424905299,610.3152098768304,0.43699999999999983,7.554303027148768,12.94660079011854,3.0,-1.0
Cs2Te3,mp-505634,36,-2.9868276380000003,4.526485814093938,-0.7426861311724139,475.8851740699533,0.5490999999999997,7.609197051931957,8.759155,3.0,-1.0
Cs2KFe(CN)6,mp-505660,14,-7.4328820521875,2.3909295729753404,-0.2799618086338782,717.9332366952017,0.0,7.7545009999999985,13.646616732867088,3.0,-1.0
Cs2RbFe(CN)6,mp-505661,14,-7.419320119375,2.5011858182884685,-0.274516430477628,747.8550877174962,0.002600000000000157,7.857653999999999,13.785533330594973,3.0,-1.0
TlIn5S6,mp-505747,11,-3.924227792916666,5.081926057492044,-0.844393556979167,634.4667040566122,1.2252999999999998,3.9844199999999996,17.876155613686098,3.0,-1.0
K2NaInSb2,mp-505767,64,-2.888382835,3.633520252709595,-0.4641934482222218,840.0208218739232,1.1444,7.089397,10.951545316032071,3.0,-1.0
Ba5Mg18Si13,mp-5080,189,-3.3090944922222216,2.9913551536274112,-0.2832895669444445,826.6940101237701,0.0,4.503013,14.559802514357193,3.0,-1.0
Ca2Ni7P4,mp-510001,31,-5.832767318076923,5.812731731960331,-0.7462057822527475,351.32311946602766,0.0,3.689831,10.355834,3.0,-1.0
Cs7Au5O2,mp-510075,71,-2.9326546421428565,6.027537433134325,-0.7091864105726603,536.4299387361641,0.9237,10.606443856246118,10.606443856246118,3.0,-1.0
Rb7Au5O2,mp-510076,71,-2.962268002857144,5.732189043246333,-0.6962339210714289,467.8748373960209,0.7434000000000001,10.15256694605054,10.15256694605054,3.0,-1.0
Rb2Ag4S3,mp-510240,12,-3.323515995,5.13657006786691,-0.6890424662268515,451.6859392288324,0.19220000000000007,9.380407938667913,12.001464979452507,3.0,-1.0
Ti11Se4,mp-510285,12,-7.381198285111111,5.596597959411029,-0.6589277455138889,749.8126151547863,0.0,12.914587655828312,19.2640832115538,3.0,-1.0
Sc2CrB6,mp-510306,55,-7.663216426666668,4.096843451774347,-0.7305123927777772,335.23973546753064,0.0,3.3714519999999997,11.170715,3.0,-1.0
Cs3Ge4Au,mp-510341,59,-3.33026014375,4.8287365226304315,-0.2737351342241374,609.5346027123974,1.0296999999999998,6.248514,13.285641,3.0,-1.0
In5Se5Br,mp-510346,31,-3.51499942,5.616386405143147,-0.5263719128835224,620.1722189986292,0.9157999999999996,4.1761919999999995,15.5952,2.0,1.0
In5S5Br,mp-510347,31,-3.828054118636364,4.830963434381516,-0.8498455255113645,559.8090445276828,1.2514000000000003,4.003197,15.137203,3.0,-1.0
Cu5Si2S7,mp-510418,9,-4.739588500357144,4.0008207983502855,-0.7640463247767855,496.6948352919042,0.0,8.76253943311692,9.592278792272305,3.0,-1.0
SiNi2P,mp-510422,61,-6.0534448640625,5.860596517399928,-0.4537265537053576,399.95325148739516,0.0,4.9846910000000015,13.666753,3.0,-1.0
Y5Ga3,mp-510521,193,-5.68281840125,5.09172074236052,-0.5057381419791671,426.3751045348256,0.0,6.579657000000001,8.650256480437328,3.0,-1.0
Cs2AgSbS4,mp-510710,2,-3.812934164375,3.8227796307303454,-0.9823939825035924,541.8448499294954,1.7203,7.096731,11.289542080258613,3.0,-1.0
Zr2SbP,mp-5137,194,-7.792337405,6.490311528807154,-1.1329153146428563,171.51177034952494,0.0,3.8397257752043963,13.432685999999999,3.0,-1.0
Cd4GeS6,mp-5151,9,-3.5483267713636364,4.357895985241943,-0.8980971262500006,544.6408546244373,1.8442,7.279274224446075,12.666278353004012,3.0,-1.0
Ba3As14,mp-524,14,-4.6316555079411765,4.822327184930597,-0.456092557352941,1006.0926454878644,1.1757,6.937908999999999,13.949951,3.0,-1.0
Ti2SbP,mp-5244,194,-7.24034785,5.683966350369973,-0.9070300663095248,145.17694164914087,0.0,3.637983012807647,12.666183,3.0,-1.0
Na5SnAs3,mp-5248,14,-3.152047640555556,3.330906732327779,-0.4231378457407409,914.1419259955612,0.3932000000000002,7.698958,16.176245603481327,3.0,-1.0
NbSe3,mp-525,11,-5.8064981683333325,5.7926036520347095,-0.6592383000911456,567.2300753015284,0.0,3.515248,15.843259680927408,2.0,1.0
Li19(FeAs)20,mp-530480,1,-5.4893541962711865,5.163363521961083,-0.4240667358192096,883.5037801019728,0.0,8.375641,13.019222621857462,3.0,-1.0
CuAsS,mp-5305,62,-4.469854148333334,4.75148654317202,-0.392749167708334,238.38943190172824,0.0,3.8241980000000004,11.404067,3.0,-1.0
Nb4CrS8,mp-5306,194,-7.4161114626923075,4.816211423679168,-1.4282509576923088,469.0000631109532,0.0,6.694202008604312,12.084944,3.0,-1.0
K4Si23,mp-531,223,-4.798387398333333,2.4049190944307712,-0.012320055814815007,1108.020332493401,0.0,10.347828999999999,10.347828999999999,3.0,-1.0
Li18Fe5N12,mp-532423,13,-5.422704765,2.937067946291341,-0.5044107006731426,647.0619942612335,0.0,6.741134,10.583276990151305,3.0,-1.0
K6LiFe24S26Cl,mp-532767,221,-6.109427390689657,4.117608551994492,-0.8783416461352299,988.4146304680513,0.0,9.961232,9.961232,3.0,-1.0
Nb3Se5Cl7,mp-540615,11,-5.029486552333334,3.5851529984219206,-1.2587912626359177,853.8003736207105,0.9467,8.230838,12.793330000000001,1.0,1.0
Cu7As6Se13,mp-540665,146,-3.984402643076924,5.1561630215191485,-0.05763316886418252,618.6026118351926,0.0,8.766884583532851,8.76688542114393,3.0,-1.0
Ca3(SiAs2)2,mp-540696,14,-4.766316833611112,3.627989928270301,-0.8214389113888892,871.6323745134567,0.8231999999999999,7.191633,17.798636,3.0,-1.0
Cs2CoO3,mp-540730,64,-4.7221466237500005,4.528064557949086,-1.4284601328520117,546.7706045357579,0.4261999999999999,7.08783610758742,13.997392000000001,3.0,-1.0
PbI2,mp-540789,166,-2.9186919766666666,5.460888411327833,-0.6651345433333334,280.36586623300576,2.4125,15.184869701945455,15.184869710872727,2.0,1.0
Cu3(AsO4)2,mp-540858,14,-5.590507884807693,4.7995736056572325,-1.315032456346154,648.3270622733602,0.02119999999999989,6.371685,11.534067516492565,3.0,-1.0
CrTe3,mp-540922,14,-4.904763020625,5.937552872883343,-0.13402545562500026,972.7858267706987,0.17140000000000022,8.193868,11.673185128440995,2.0,1.0
Ba3SnP3,mp-540923,14,-4.589700692857143,4.54518146022527,-0.8745089886734695,911.3234068884976,0.7994000000000003,8.703913,12.86928,3.0,-1.0
NbTeI3,mp-540924,13,-4.021820559,5.026952707109515,-0.4584917959999998,794.3969295721472,0.5118,7.469614,13.704938853028604,1.0,1.0
SeBr,mp-540943,14,-2.65674817875,3.3964783277778463,-0.0903291699218749,621.349180694308,1.8382,5.318246,15.241087,0.0,1.0
Cs2TeI6,mp-540957,225,-2.384760573333333,4.366848880357585,-0.8205181995402301,439.1388867563217,1.5571000000000002,8.531766574033773,8.531766574033773,3.0,-1.0
FeTeCl7,mp-540997,1,-3.4070523177777776,2.440718188187561,-1.1414678014244446,587.2986346710078,1.2736,6.789467999999999,10.33099962020549,2.0,1.0
FeTeBr7,mp-540998,1,-2.9940017605555562,3.6235113647914488,-0.4304695838888889,680.7780961308894,1.0711,7.05362,10.925805436307842,2.0,1.0
TiI4,mp-541013,15,-3.526296582,4.366869075159257,-0.7279880866666666,422.4556900011817,1.1083000000000005,7.005263403949419,8.259616239458405,1.0,1.0
Cs3Sb2I9,mp-541014,164,-2.6649875435714283,4.275630284932174,-0.9035358913423645,693.0035650002831,1.5445999999999998,8.687175910672524,10.60346,3.0,-1.0
Te7As5I,mp-541032,8,-3.6052660815384616,5.623785441139458,-0.003519070000000222,411.8177279963816,0.5563000000000002,7.725136269634342,14.572316886055427,1.0,1.0
Ca3GaAs3,mp-541062,62,-4.297545768928571,3.9245841211999686,-1.0086528607142855,701.8952626859314,0.33640000000000025,4.222323,13.529074,3.0,-1.0
Nb2Se9,mp-541106,2,-5.208600380454545,4.62052664042187,-0.5117082550994315,644.3398968068625,0.8003999999999998,8.525162,8.840560471077668,1.0,1.0
TeAuBr8,mp-541134,2,-2.2103402095,4.072531072981299,-0.25908073049999986,785.960940494965,0.8237,8.288705,10.883043011772212,0.0,1.0
Cu4Bi7S12,mp-541149,12,-4.318264641304348,6.445038341479063,-0.6094409346739134,541.5275018869648,0.0,9.443703140795616,15.22347288122865,3.0,-1.0
Sc7CoI12,mp-541175,148,-4.6172993345,4.540348178324547,-1.131111689,693.5979462190895,0.5431999999999997,9.433764763339184,9.433765206431735,3.0,-1.0
TlCuAsO4,mp-541202,15,-5.414268946428571,5.6691892051114285,-1.3996060992857136,476.67333298983186,0.011800000000000031,5.078698254432625,18.531953084268398,3.0,-1.0
Na5HfAs3,mp-541236,14,-3.976141793611111,3.8366772957021618,-0.5863856660185189,897.1277310872093,0.9032,7.5657830000000015,16.26960237559554,3.0,-1.0
CaGaGe,mp-541310,194,-3.7428821633333333,4.402815850035361,-0.5239744174999998,275.2333217362588,0.0,4.2442806055473055,17.642585999999994,3.0,-1.0
Ge3(Te3As)2,mp-541312,166,-3.87350975,6.084932588388326,-0.0510437540909091,309.28754639585253,0.5336000000000007,20.58598780494781,20.585988180649114,2.0,1.0
PtF5,mp-541341,14,-3.719526755208333,5.333644865523804,-1.5239170253666667,722.4816334739328,0.0,5.690914,12.772500789508884,0.0,1.0
Ba6Co25S27,mp-541376,221,-5.9068882063793104,5.274115555703348,-1.0277072363685362,995.8755832994066,0.0,9.986233,9.986233,3.0,-1.0
CsBiS2,mp-541378,14,-3.99679904125,4.689594847241118,-1.0639449372952592,575.0647599209675,1.58,7.516931,9.594808,3.0,-1.0
Rb5(CoO2)2,mp-541389,2,-4.2605568,3.817973121250757,-1.3192869975000008,529.9174888130855,1.0184,7.075183264421662,9.717317336194224,3.0,-1.0
SrZrSe3,mp-541570,62,-5.740130134,5.206313945914519,-1.5951468707395833,530.3759627979628,0.16690000000000005,3.9929940000000004,14.655838000000001,3.0,-1.0
K2Na3SiP3,mp-541694,62,-3.5152413919444445,1.9136004906705435,-0.4230273754682538,930.8342820515056,0.8887,4.800822,14.663715,3.0,-1.0
K6Na3AlSb4,mp-541707,194,-2.6479076717857137,2.7936487043485423,-0.4430554487857142,971.9365225817037,0.7282999999999997,10.291814541244804,10.595547,3.0,-1.0
Nb3Tl2Br9,mp-541709,12,-4.4716411875,5.255507877429202,-0.9173869060714288,888.8771192714603,1.0294000000000003,10.183151833272694,10.390552981546506,3.0,-1.0
Ba3GaP3,mp-541715,64,-4.522688068214285,4.3709362267207945,-0.9477072715306124,873.2113090334951,0.6313,10.38603269395297,13.141565,3.0,-1.0
Si2Ag6O7,mp-541728,4,-5.298263845666667,6.220687062223133,-1.460555689583334,870.6200382207721,0.2254999999999998,5.441731,16.241558785168277,3.0,-1.0
Ba9(NbN6)2,mp-541765,2,-6.668751889565217,5.261058147630983,-0.8903599851547819,1003.5947062710546,1.2792,8.163406,12.886532059445202,3.0,-1.0
NbSeI3,mp-541817,15,-4.1647179075,4.823098900784123,-0.5308670349687497,760.9881925161824,0.6478000000000002,8.363874635132332,13.842163403341837,1.0,1.0
Ti(AlBr4)2,mp-541826,15,-3.656487840909091,3.018289368145567,-1.0672100230303032,815.4039456610492,0.0,10.47470128043874,12.578017864625965,1.0,1.0
In3Te4,mp-541885,166,-3.215625104285714,6.283158492725109,-0.2401601171428572,225.92434440144257,0.0,14.07137905928065,14.071379670770733,2.0,1.0
Na2(ReS2)3,mp-541895,15,-6.6147177363636365,5.8152404325224625,-1.087369991856062,910.3210368314147,1.4379999999999995,9.392159135981672,11.654189385651195,3.0,-1.0
Zn(InS2)2,mp-541937,160,-3.88834565,4.169268879786114,-0.9376212874999996,168.59418518077754,0.13580000000000014,12.83145211748152,12.831452213776664,2.0,1.0
Cs2NaFe(CN)6,mp-541977,14,-7.4337095284375,2.5569929887462086,-0.2680234555297121,650.3850910908196,0.0,7.628236999999999,13.344693043308638,3.0,-1.0
K3FeSe3,mp-541997,14,-3.937238706785714,3.0798342503807734,-0.75310525621875,884.273641608146,0.0,8.12893,13.030773,3.0,-1.0
Tl3B3Se10,mp-542058,2,-4.108786675625,5.470423281244893,-0.22864611130859336,871.2953826943883,1.3114000000000003,7.311223,14.862303837551801,0.0,1.0
Hg3Se3O10,mp-542115,4,-4.3940644034375,6.487252922652949,-1.0281000149707031,511.2448660156561,1.8689,5.447457,11.392518241645876,2.0,1.0
Ca3Si2Ni3,mp-542138,62,-4.7837423390625,3.560784897367021,-0.5077626240625,657.5128370501891,0.0,3.9410199999999995,18.050144,3.0,-1.0
Ta2Tl4Se11,mp-542140,2,-4.706477794117646,6.488255706254072,-0.4937017097518379,1048.2834925163272,1.0857,8.28481,14.126933908883275,3.0,-1.0
Ag4HgGe2S7,mp-542199,9,-3.7749801982142857,5.043673354156453,-0.5470595441815475,659.6479458222789,0.4752999999999998,9.569089872417855,10.662648298023198,3.0,-1.0
CdAg4Ge2S7,mp-542200,9,-3.890741255,4.621826450208731,-0.6185913584672623,656.4935856956275,0.6799000000000004,9.555809386034918,10.650161132987614,3.0,-1.0
Cu9S5,mp-542333,166,-4.187659407142856,5.821285606199512,-0.31210159540178595,208.8733568222807,0.0,16.227250740936526,16.22725118507719,3.0,-1.0
CsIn3,mp-542339,119,-2.392184298333333,5.267918611511722,-0.10457090781609206,451.4158686650105,0.17039999999999988,10.000618214403495,10.000618214403495,3.0,-1.0
Hg3S2ICl,mp-542474,12,-2.0825887264285714,6.252543718544836,-0.5633195235014282,879.8683851239769,1.4061,10.546615486871843,13.377407520224276,3.0,-1.0
Sr5Cd3,mp-542484,140,-1.64714659,4.068644836053746,-0.24513714666666675,632.8744768849963,0.0,10.422469798472337,10.422469798472337,3.0,-1.0
Sc3(Si2Ni)2,mp-542486,62,-6.648369536388889,4.3520100684338665,-0.8418210080555563,556.4571607647081,0.0,3.9884720000000002,11.951617,3.0,-1.0
Sc5(Co2Si5)2,mp-542493,127,-6.757937264473685,4.32909057737821,-0.7395816378947371,568.7427457417103,0.0,3.941318,12.012605,3.0,-1.0
K3Nb2AsSe11,mp-542545,9,-4.641565679705883,4.074784701946772,-0.7210979396930149,1016.0095895348852,1.1730000000000005,10.097210848740064,10.144784489653787,3.0,-1.0
AsSe,mp-542570,14,-4.1709627253125,4.101587050305874,-0.0934477839843746,996.7903849778686,1.5425,7.099311999999999,14.588998000000002,0.0,1.0
Tl2Mo9S11,mp-542618,148,-7.357441843181817,5.932135010695674,-0.9693972174715899,909.7159801246927,0.0,13.05151837459508,13.051518900726075,3.0,-1.0
Tl2SnS3,mp-542623,12,-3.899783715,5.959759926967722,-0.7078091457291661,347.54119938379773,0.9537,7.528170405543767,11.973217876120772,2.0,1.0
Rb2Mo9Se10,mp-542629,148,-7.071292715714287,5.738039802216325,-0.6650560399255948,1055.6970866380616,0.0,14.051120801845384,14.051120986791373,3.0,-1.0
K2B2Se7,mp-542637,15,-4.152937895454547,3.4886504012056547,-0.5119413700672346,621.194853683245,1.6404,8.754417863741997,12.566950186382735,3.0,-1.0
KSbSe2,mp-542642,2,-3.743759,4.007959984791155,-0.6859532144218745,528.2925206269667,1.5739,6.649960000000001,12.671210047723696,3.0,-1.0
Zn2In2S5,mp-542644,160,-3.7704800000000014,4.15267421458475,-0.9496128872916666,208.2450560479026,0.00010000000000021103,15.795565784890453,15.795566306886911,2.0,1.0
RbIn3S5,mp-542654,10,-4.0425736929629625,4.213035344173302,-1.0869587377546293,697.9252179959776,1.1974999999999998,3.845575,15.604046509920721,3.0,-1.0
Na3In2Au,mp-542680,227,-2.361097544583333,5.168262364552492,-0.2408966029166668,636.899912392399,0.0,9.657440971703007,9.657440971703007,3.0,-1.0
Na3In2Ag,mp-542681,227,-2.1933486808333336,4.0835975954174915,-0.14670199527777772,661.1475528966807,0.0,9.77847502522515,9.77847502522515,3.0,-1.0
V8C7,mp-542730,212,-9.674924596833334,5.639359559676576,-0.5243436995000006,579.0249436813262,0.0,8.334875,8.334875,3.0,-1.0
YCuPbS3,mp-542802,62,-5.55003317875,5.756013625054384,-1.4338174364236114,526.0248165617561,1.6243,3.92605,13.03333,3.0,-1.0
GaTe,mp-542812,12,-3.446352965833333,5.0078778220838185,-0.3606547495833332,392.57653067386804,1.0354,9.346433608814008,10.824104182712073,2.0,1.0
Sc2PbSe4,mp-542826,62,-5.696104218928572,5.802824677938503,-1.3587854774107144,701.6103406090286,1.3114,3.943004,14.403489000000002,3.0,-1.0
Cr(AgO2)2,mp-542882,62,-5.45043754142857,5.371075836693823,-1.123605919761905,410.2349751637109,1.3966999999999998,5.693949,10.248275999999999,3.0,-1.0
NbI3O,mp-546285,5,-4.964806925,4.634770012578028,-1.1810052542500002,350.8401886374551,0.8325,8.053824574958162,13.211971459089256,1.0,1.0
Al5C3N,mp-5496,194,-6.41329388,3.0213559542083215,-0.3732168313755548,203.2934096556226,1.7830000000000004,3.3456617536363416,20.971456,3.0,-1.0
Ba(AlSi)2,mp-5506,62,-4.349940004,3.4750273675791843,-0.2977898979999999,472.9963165035763,0.0,4.2617,10.944222,3.0,-1.0
Cu6Mo5O18,mp-5511,15,-6.32260838137931,5.381784306615823,-1.5781106707758623,709.0219496231018,0.7826999999999997,10.01742326955555,14.969133825621475,3.0,-1.0
Li7MnN4,mp-5515,218,-5.2339666125,2.411213392950808,-0.7061286718757085,879.0331790464243,0.6562000000000001,9.579329,9.579329,3.0,-1.0
K2AgSbS4,mp-553923,34,-3.849312189375,3.1960969705436857,-0.9650228637708328,906.2751893003614,1.0986999999999998,8.095652000000001,10.697165,3.0,-1.0
Ag4PIO4,mp-553924,11,-4.72534434625,6.266635514977661,-1.2003259097738097,692.4997791575145,0.6941999999999999,6.928308,11.314776501355428,3.0,-1.0
Li(CuO)2,mp-553966,137,-4.9480339972500005,5.2968816288572285,-1.2283005684166668,416.3993980094268,0.0,5.7581620000000004,12.558632000000001,3.0,-1.0
Cs2Ni(PS3)2,mp-553980,14,-4.560301971818182,3.1802903967569955,-0.9934426674322656,604.4664785481185,0.2450000000000001,5.945578,12.937966000000001,3.0,-1.0
Cu5Se2(ClO4)2,mp-554163,14,-4.789055800588237,4.453528850276107,-1.0266509765416183,503.0251998715425,0.0,5.4914,11.237310990768297,3.0,-1.0
Cu3SbS3,mp-554272,14,-4.3055618083928575,5.0271045049148695,-0.4704774011607147,1079.7223541718013,0.8347000000000007,7.8435710000000025,13.404632612360885,3.0,-1.0
ZnGa3N3O,mp-554388,1,-5.6873443196875,5.7371200337697985,-0.8814553010487494,385.06507721825653,0.0,6.492848,10.541619056217312,3.0,-1.0
VCu2BiO6,mp-554393,12,-6.0973516235,6.042641099434611,-1.6009169702499997,796.3975945504009,0.0,9.211791092143264,13.751849507641143,3.0,-1.0
KCu2AsS3,mp-554421,2,-4.229808830357142,3.805908475074844,-0.7459659314107141,588.6755170829217,1.1725,6.338519,10.354057628032935,3.0,-1.0
CuSeO3,mp-554440,14,-5.1436181905,4.432595373416588,-1.0771952797187496,570.9335318058578,0.026000000000000245,7.8005460000000015,10.752792084521769,3.0,-1.0
Cu8GeS6,mp-5546,31,-4.315166199999998,5.3354289500299,-0.4315248389166669,481.4074388613533,1.2398999999999996,6.967086,9.818995,3.0,-1.0
Cu7As6(PbO12)2,mp-554606,2,-5.68020973,5.52188246229587,-1.424557870769231,509.0394931945743,0.03519999999999968,5.245317091466349,11.431030356987552,3.0,-1.0
Cu6PS5Br,mp-554627,9,-4.259061934615385,4.754730393842211,-0.489031030322803,455.7425488650151,1.1004000000000005,6.831223482142347,11.924931313747845,3.0,-1.0
CuHgSBr,mp-554879,55,-2.82462022875,6.2942884472612635,-0.4464193682812505,793.7825549324333,0.7323999999999997,4.0992190000000015,19.054414,3.0,-1.0
Hg(BiS2)2,mp-554921,12,-3.81500337,6.650783461820673,-0.6756164482142856,372.9210297937788,1.3446000000000002,7.541400808669964,14.281682645355765,3.0,-1.0
Hg3SbAsS3,mp-554950,14,-2.8873331440625,6.762311221567216,-0.37256685148437496,878.7502269122514,1.6692,4.5796220000000005,19.727180904537274,2.0,1.0
Ta2Tl3Cu3S8,mp-554994,5,-5.42319356625,5.766734454878364,-0.993065244687501,409.52548735683314,1.9486000000000003,7.44226536769363,10.301471824045,1.0,1.0
Hg3AsS4Br,mp-555074,186,-2.8394178711111118,5.859421540863241,-0.4950794813888888,501.5298120651386,1.5311,7.587209477052878,10.060092,2.0,1.0
Rb2Na2IrO4,mp-555091,14,-4.869054543888889,4.9256730358794325,-1.4900028912962957,638.004519363193,0.0,6.311476,11.256119,3.0,-1.0