pretty_formula,task_id,spacegroup.number,final_energy_per_atom,density,formation_energy_per_atom,volume,band_gap,min_abc,max_abc,Dimension,Dim
Ba4Cu2Si21,mp-1228302,40,-5.006527929629629,3.743756776939753,-0.19890233407407454,1123.2391519952394,0.0,10.371792,10.406610071532901,3.0,-1.0
Ba4Si21Au2,mp-1228313,40,-4.985328321481481,4.426030090928168,-0.2388379207407407,1150.3162769479854,0.0,10.438278,10.497702133348707,3.0,-1.0
Ba4Si22Au,mp-1228316,40,-5.002471152407408,3.9666903810804417,-0.1762980672222225,1142.127767797925,0.0,10.42721515656702,10.504564,3.0,-1.0
Ba2SrB18,mp-1228370,123,-6.409660848095237,4.005668962903688,-0.4212572867460308,230.84975809517707,0.8369000000000004,4.25349,12.759644999999999,3.0,-1.0
Ba2Na(SnAs)6,mp-1228433,12,-4.2706115953333335,5.499631162341678,-0.4596292328888893,440.6561191564035,0.0,7.313211821207492,9.818663897837272,2.0,1.0
Ba8Si43Ni3,mp-1228480,155,-5.141829917222223,3.6839927162511,-0.2162617775925934,1118.9155798348113,0.028699999999999726,10.381635430284863,10.381635749113336,3.0,-1.0
Ba2(CaAl3)3,mp-1228507,160,-3.4007119057142856,3.0389510570952964,-0.2889316364285714,348.4630128410839,0.0,12.380352231976481,12.380352930693252,3.0,-1.0
Ba2CuAg3(SnS4)2,mp-1228525,1,-4.358844284375,4.641152615385018,-1.0939768478125007,413.5091470489775,0.4606000000000003,6.495028,10.786887488494727,3.0,-1.0
Ba2MnTeSe2,mp-1228544,62,-5.303102100416667,5.122399743188202,-1.4473067644737792,797.6086461561338,0.0,4.671057,18.249837,3.0,-1.0
Al3BC3,mp-1228599,185,-6.606790871904763,2.6210933011227406,-0.0930106774999994,485.74347405317627,1.819,5.933514123226218,15.931343,3.0,-1.0
Ba2Ag8S7,mp-1228614,31,-3.801661823529412,5.738495647681807,-0.8128783673651967,788.2710079447103,0.9642,4.43961,16.150185999999998,3.0,-1.0
Al4GaSb5,mp-1228691,44,-4.0149892010000015,4.320039267683167,-0.14944869874999964,302.29575794483554,0.9978999999999996,11.654114693882072,11.654114693882072,3.0,-1.0
Ba10IBr4N5,mp-1228711,2,-4.596474913,5.068977423447402,-1.245285512345,619.084732290615,1.1374,7.284363000000001,11.126832400401158,3.0,-1.0
Al37(Fe6Cu)2,mp-1228719,8,-5.196470579607842,4.155398905921024,-0.3253969794117645,717.5193546447273,0.0,8.680457441120138,12.414771350373433,3.0,-1.0
Al4InAgTe8,mp-1228728,5,-3.658571845,4.793011196934193,-0.39336109547619,468.1969053196632,0.3958999999999997,7.402392006030822,8.911016442311167,3.0,-1.0
Al9Co2Ni,mp-1228742,71,-4.874733065,3.984798863552825,-0.39915350333333305,699.0762073900522,0.0,10.480958670659712,10.480958670659712,3.0,-1.0
CsTi2(CuTe4)2,mp-1228812,8,-4.361415579230768,5.450851526393528,-0.5128611803536699,419.3444347576868,0.0,10.243260703243378,13.45251638042582,3.0,-1.0
AlVCrC,mp-1228847,164,-8.27058017625,5.09463209956775,-0.34325265875,92.5209267737031,0.0,2.8811073772874205,12.870351,3.0,-1.0
Ba10Ge7O3,mp-1228879,187,-4.435068455,5.030015491994266,-1.2206734704375002,637.0601203716296,0.0,5.040655,12.080402848766965,3.0,-1.0
Al3ZnCr8,mp-1228973,123,-7.552376041666666,6.12262448984725,-0.07563847000000005,152.509490171932,0.0,2.975938,17.220633,3.0,-1.0
Al41V4,mp-1229052,216,-4.309938754666667,2.874286714682272,-0.08984468111111141,756.8212482583145,0.0,10.229068922041339,10.229068922041339,3.0,-1.0
AgW2(Br3O)2,mp-1229084,8,-4.279858183636364,5.4303970779608735,-0.7926128090151523,301.8018534505915,0.0,7.500779180498849,11.535321944111836,2.0,1.0
Cs3BAsP,mp-1229098,9,-3.605125995833333,3.606910459060936,-0.3654588035885335,474.5776576759394,1.5632,7.0869644910346485,10.07694025160981,3.0,-1.0
Ag4Hg4S4BrCl3,mp-1229155,1,-2.594086953125,6.1080083517254815,-0.6043754274341668,420.9400424559624,1.0493,4.538843,13.285047096287053,3.0,-1.0
As2SeS2,mp-1229167,14,-4.2671726455000005,3.6533801376174067,-0.31514704121875,532.5775081498964,1.0273,4.308024,12.190501927441053,1.0,1.0
AlIn3(CuSe2)4,mp-1229179,1,-3.9966630425,5.297211764254534,-0.4738664474218748,394.1309306061442,0.043099999999999916,5.829573336164787,10.888071504646184,3.0,-1.0
Ag8Sb5As3S16,mp-1229180,1,-4.0035005765625,5.107624690147718,-0.4769178480729166,718.34658601659,1.0254000000000003,5.973633,13.715369001115976,3.0,-1.0
Ag4Sn2(HgSe3)3,mp-1229187,1,-3.093957965,6.163396721994734,-0.22042395848669,533.8015465438308,0.03389999999999982,7.576297,10.69821617634482,3.0,-1.0
AgAu(IO3)4,mp-1229194,7,-4.232217913333333,5.62725555586381,-0.723858267314815,592.8008393345641,1.2556000000000005,5.8436129999999995,13.082546311412814,3.0,-1.0
AgBi3PbS6,mp-1229202,36,-4.238080380909091,6.6606915353933625,-0.6877853623106069,565.6213054809639,0.31040000000000045,7.166189000208478,20.000882999999998,3.0,-1.0
Cs2Bi4Se7,mp-1229208,11,-3.863229465,6.103763213031678,-0.6461277474821784,900.1931826347948,0.7850000000000001,4.27463,15.69985740193512,3.0,-1.0
Mg(ScSe2)2,mp-1232159,62,-5.522161181785713,4.4570085670920285,-1.486609157410714,640.9017585315987,0.9595999999999996,3.8080300000000014,13.292629999999999,3.0,-1.0
Cr2AgS4,mp-1232346,62,-5.938813772857142,4.6503103681897064,-0.7915837141666671,485.80259538029924,0.0,3.4941980000000004,11.939822,3.0,-1.0
LiP4(Br3O)4,mp-1236356,6,-3.836355619047618,2.5499390457387427,-0.9702676825056696,751.2859768647774,0.5152,6.248557879370327,11.20714750692044,1.0,1.0
BaCu2SnSe4,mp-12364,40,-4.25343567625,5.299959512046295,-0.7396104342968748,437.99026321022086,0.4590000000000001,6.6560050278924825,11.213632,3.0,-1.0
Sc2Te3,mp-12383,70,-5.643309845499999,5.171560519404041,-1.2243416454999996,607.1331452473846,0.10909999999999977,7.199237125022693,13.73700759603084,3.0,-1.0
CsPb2I5,mp-1238789,140,-2.854589721875,5.5109562675728325,-0.8619947734913795,712.2071523580713,1.9732000000000005,10.637205873342493,10.637205873342493,3.0,-1.0
Li(CrS2)2,mp-1238803,62,-6.133427828928572,3.4012756530882,-1.1181453611904766,467.10669004958453,0.0,3.467496,12.394683,3.0,-1.0
Cs(CrS2)2,mp-1238823,59,-6.0825432899999985,3.4674134847030187,-1.21204946434729,699.4937859276483,0.0,5.981879,16.714407,3.0,-1.0
Cr2CuS4,mp-1238841,59,-6.165795116428571,4.0605967355609485,-0.8376149625000002,483.85446663873716,0.028399999999999537,5.890237,12.036727,3.0,-1.0
Na(CrS2)2,mp-1238843,62,-6.056765438571429,3.4315403456421607,-1.126378777976191,494.0513224198061,0.0,3.5308029999999997,12.764312,3.0,-1.0
K(CrS2)2,mp-1238876,62,-6.039875285357143,3.3972511421552936,-1.138667663285714,530.5325831231659,0.0,3.5780980000000002,13.099977,3.0,-1.0
TiCrAgS4,mp-1238892,6,-6.030733499642857,3.911608851596738,-1.1345827914285729,570.5342234921798,0.01529999999999987,3.4585769999999996,14.175857392096605,3.0,-1.0
TaCr3(CuS4)2,mp-1239123,1,-6.5069985375,4.546880534878901,-1.0213376578571436,526.2941892047734,0.0,6.026381,12.813458379764226,3.0,-1.0
NbCr3(CuS4)2,mp-1239147,6,-6.344462592857143,4.498830828711045,-0.9842640410714288,233.4611129012793,0.0,3.4457720000000003,11.406190589038966,3.0,-1.0
TaCr3(AgS4)2,mp-1239165,1,-6.260011584642856,4.857635265712703,-0.9553008002380948,553.230458028512,0.17629999999999946,6.005661,13.281269444042538,3.0,-1.0
Cr2AgS4,mp-1239177,62,-5.956072513214287,4.651656513668693,-0.8088424545238097,485.66200869563545,0.0,3.485622,12.583167999999999,3.0,-1.0
Rb(CrS2)2,mp-1239181,59,-6.065878688214285,3.167548138074113,-1.183223191071428,666.2395635267943,0.0,6.00356,15.973442000000002,3.0,-1.0
TaCr3(AgS4)2,mp-1239205,13,-6.281171401071428,4.859421876961161,-0.9764606166666668,553.027057750798,0.27170000000000005,6.023637,14.9579598320294,3.0,-1.0
TaCr3(AgS4)2,mp-1239221,6,-6.280117246428572,5.085090603556795,-0.9754064620238097,264.2422714263911,0.0,3.4606529999999998,12.867356569776485,3.0,-1.0
NbCr3(AgS4)2,mp-1239252,17,-6.170746050357143,4.3881178584678855,-0.9914975938095236,545.7918770116579,0.0,7.286569,10.190116,3.0,-1.0
NbCr3(AgS4)2,mp-1239267,17,-6.164928893214286,4.379495978629393,-0.9856804366666674,546.8663732558335,0.12809999999999988,7.305060000000001,10.211185,3.0,-1.0
NaSnN,mp-12433,186,-4.637476716666667,4.778073024549201,-0.2119112969044448,108.22633887483828,0.9333,3.3669475659297103,11.023756,2.0,1.0
SrGe2,mp-1244,62,-4.127448756666666,4.722335397985944,-0.4822697688888885,655.1665919808793,0.3994,6.598553,11.26928,3.0,-1.0
Li7CrN4,mp-1245354,218,-5.3192286821875,2.331753074937352,-0.7504456582586106,892.2277747554599,0.0,9.62702086,9.62702086,3.0,-1.0
Li7RuN4,mp-1245358,218,-5.0062157240625,2.9310271206328258,-0.4689875180502773,932.2219719154268,0.0,9.76876761,9.76876761,3.0,-1.0
Li7IrN4,mp-1245361,205,-4.888065281979167,4.207056650139593,-0.3871670122169449,937.28072723485,0.3083999999999998,9.786406,9.786406,3.0,-1.0
NaMoN2,mp-1245367,61,-7.5389433528125,3.9551732244972064,-0.5226334473358323,987.0814118508322,0.0,5.65609897,15.51968828,3.0,-1.0
Zn7GeN6,mp-1245376,60,-4.410956026428571,5.375695632964602,-0.04266557994857122,759.3234895634181,0.33920000000000017,5.7464910000000025,12.517211999999999,3.0,-1.0
Ca7VN6,mp-1245382,60,-6.155792385714285,3.0301845238139853,-1.0959396460199986,910.8355925941652,0.0,6.32763812,12.92723831,3.0,-1.0
Ca7OsN6,mp-1245383,60,-5.990727198571428,3.955515489729248,-0.7777724317342855,931.6550293126227,0.11929999999999995,6.31269638,13.360484900000001,3.0,-1.0
Ca7IrN6,mp-1245385,72,-5.8345845585714295,4.03167768293995,-0.7922657938771422,458.66437682769714,0.0,6.37061675,9.0661958929256,3.0,-1.0
Ca7HfN6,mp-1245388,72,-6.264101910714286,3.679988245296224,-1.1418718295914283,490.1098515156176,1.1581,6.38837875,9.345228813138814,3.0,-1.0
Li3W2N5,mp-1245410,80,-7.856477531499999,5.467629809971776,-0.7159392836900011,557.0368135189908,2.0505,8.405302241436164,11.512805413844776,3.0,-1.0
Ca5(AgN2)2,mp-1245411,130,-5.018452826818182,3.668343161261488,-0.6999982670775751,854.9132941538518,0.5340000000000003,7.98932188,13.39375138,3.0,-1.0
Ca5(AuN2)2,mp-1245420,130,-5.221904830227274,5.095564233271417,-0.8232092638199991,847.7424124759254,0.5202999999999998,8.0169055,13.19016969,3.0,-1.0
Ba4VN4,mp-1245490,2,-6.360148652777778,5.118708785492604,-0.9635177482799998,425.7997398571781,0.20639999999999992,6.779857808463095,9.966472009402775,3.0,-1.0
Li7OsN4,mp-1245516,205,-5.152542539791667,4.186692963472897,-0.4525689341961107,935.5348533390803,0.03819999999999979,9.78032584,9.78032584,3.0,-1.0
CdGeN2,mp-1245521,61,-5.44936963328125,6.469457190359206,-0.08665413572124958,875.0082104048538,0.7542,5.52620281,14.29200081,3.0,-1.0
CdSiN2,mp-1245559,61,-6.24329308078125,5.706399798180804,-0.6800060419712493,784.5710975892433,1.5682,5.313358999999998,13.873016,3.0,-1.0
Mn4Se3N2,mp-1245570,62,-7.287262451388887,5.679918411982161,-0.2828730414346599,566.7496331266267,0.0,6.11195422,10.37914172,3.0,-1.0
Ba4ZrN4,mp-1245594,2,-6.268351540555555,5.489718779501123,-0.9312990182799992,421.39247784533234,1.0396999999999998,6.9432376705912215,10.082844576727243,3.0,-1.0
Ca3(RuN2)2,mp-1245598,52,-6.851099609444442,4.758007875887658,-0.587158753835555,528.2457092322219,0.0,5.98220673,10.24452987,3.0,-1.0
Sr7MnN6,mp-1245614,60,-5.66024921375,4.597882977306075,-0.7528986159358462,1086.8078570110933,0.0,6.71505469,13.66548096,3.0,-1.0
Ca5(IrN3)2,mp-1245702,15,-6.449705938846152,5.42822051769458,-0.6481910645599996,409.2225548795024,0.0,6.050832168267926,12.461015051112163,3.0,-1.0
Sr11(CN5)2,mp-1245742,136,-5.88473571,4.006872110847027,-0.8167975768318839,934.8618622870758,0.5273000000000003,3.88755596,15.50727165,3.0,-1.0
Ca2RuN3,mp-1245785,64,-6.79641264875,4.153881706016603,-0.6059116524399997,356.9758570439257,0.0,6.074963877689139,11.847919599999999,3.0,-1.0
Ca5(FeN2)2,mp-1245790,130,-6.118168122272728,3.0596657361549404,-0.7747232213199996,799.114380186214,0.0,8.008599799999999,12.45936079,3.0,-1.0
Li7MoN4,mp-1245805,205,-5.376607457604168,2.826494907684552,-0.7084414703419443,942.5877087545076,0.023100000000000342,9.8048418,9.8048418,3.0,-1.0
CaMnN2,mp-1245816,61,-7.54955113265625,3.8974866313759216,-0.7814884512600422,838.6746396818057,0.0,5.4080330000000005,14.822722,3.0,-1.0
Na3V6N11,mp-1245818,100,-8.1563274025,3.03476214610404,-0.8600980458089993,578.571690927778,0.7562,5.179196,10.569329,3.0,-1.0
Ca7CrN6,mp-1245851,60,-6.099482966607143,3.0898804513581584,-0.99897726977,895.5054339400369,0.0,6.25116764,12.97875391,3.0,-1.0
Ca7Mg2N6,mp-1245857,12,-5.1934412126666665,2.756032923364,-0.8631350536186659,248.955092827114,1.1801,6.423272992622982,12.660412589397733,3.0,-1.0
SnCN2,mp-1245869,166,-7.2686248025,3.9418433958780486,0.016699430060000964,66.86825116574104,0.0,3.90325700008826,15.203924335534266,3.0,-1.0
Sc4Te3N2,mp-1245883,62,-7.147993467222222,4.764879112281858,-1.5185797355288893,823.3374818322427,0.9958999999999998,6.859093,11.271057,3.0,-1.0
Ca7RuN6,mp-1245935,60,-5.870046072321428,3.374850523453913,-0.7965873622699989,916.4735520353037,0.2519,6.25306905,13.29659648,3.0,-1.0
Ba8Mn3N8,mp-1245975,12,-6.350354355263157,5.241256906255488,-0.7473720630529215,435.7818207144844,0.0,5.688350824060872,10.421933664195144,3.0,-1.0
Ba4TiN4,mp-1245986,2,-6.202557816666666,5.460541484166821,-0.9379729180948146,397.27455982836113,1.0568999999999995,6.816119554450465,9.689020657465747,3.0,-1.0
Ca3(MnN2)2,mp-1246021,52,-7.114860828333333,3.865708341740994,-0.8759606804255939,491.6475245790922,0.0,5.640611,9.621427,3.0,-1.0
Ca3(CrN2)2,mp-1246042,52,-7.342627704166667,3.7850317931030286,-0.9945406674466662,491.8014753586322,0.0,5.599273,9.654575,3.0,-1.0
Sr4SnN4,mp-1246073,2,-5.425416842222222,4.886257718646856,-0.6945962179096293,356.9779021300415,0.6384999999999996,6.472306456373956,9.638974717662613,3.0,-1.0
Ca4MnN4,mp-1246091,62,-6.427543796388887,3.0059392978084496,-0.9837666029639078,599.4343256564301,0.0,4.92503441,11.15477203,3.0,-1.0
Ca7SnN6,mp-1246105,72,-5.5710017417857145,3.3234111383837317,-0.8736014460199998,482.95693034814883,1.1075,6.38072196,9.2781245360901,3.0,-1.0
Ca5(OsN2)2,mp-1246123,130,-6.514279619545454,5.0295399531732174,-0.6695017058654545,841.0779648695018,0.0,8.298589999999999,12.21314852,3.0,-1.0
Sr3(CrN2)2,mp-1246148,52,-7.1260771075,5.0094277909524045,-0.8833629463355552,560.7084315801553,0.0,5.865319,9.923165,3.0,-1.0
Ca7ZrN6,mp-1246171,72,-6.126782331785713,3.0695802057913943,-1.1052299806628565,493.15580197365705,1.1696,6.396,9.367002326043536,3.0,-1.0
Sr5(ReN3)2,mp-1246201,15,-7.057031067307693,6.132836284183093,-0.8223161625087173,484.4225827851114,0.3738999999999999,6.3404065637367175,13.318391525361323,3.0,-1.0
Ca4CrN4,mp-1246207,62,-6.554372237777778,2.9350000342967277,-1.0560015999466659,607.2648438506374,1.1235999999999997,4.93625556,11.20389129,3.0,-1.0
Ba5(GeN3)2,mp-1246227,15,-5.796426329999999,5.558943779749002,-0.6767537926369224,547.2188434055691,1.1927000000000003,6.470431623896973,14.377641053093411,3.0,-1.0
Ba8Fe3N8,mp-1246245,12,-6.142744738947369,5.3352998891396295,-0.6489788031073687,428.94731835530985,0.0,5.710183732306104,10.284931380305018,3.0,-1.0
Ca5(CuN2)2,mp-1246246,130,-5.349985861136363,3.1948177319342075,-0.8012311801836366,797.3304247304718,0.3018000000000001,8.01340665,12.41663664,3.0,-1.0
SrMn7N10,mp-1246259,7,-8.521437490277778,4.372028351794587,-0.4466514668362704,465.0795769865229,0.0,6.83779858,10.084601109714107,3.0,-1.0
Ca7CoN6,mp-1246283,60,-5.72659049125,3.2103782533030225,-0.8078511997699991,876.246280495741,0.023099999999999454,6.24441556,12.92587505,3.0,-1.0
Sr4RhN4,mp-1246313,62,-5.655706015833332,4.7477904499499335,-0.5521369454096288,712.6675316224027,0.0,4.05115832,16.16752176,3.0,-1.0
NbCr3(AgS4)2,mp-1246315,1,-6.119238955,4.328635588051618,-0.9399904984523816,553.2919170032484,0.2078999999999996,5.9996418996445575,13.287759320298607,3.0,-1.0
Na3Re2N5,mp-1246353,80,-7.22927749825,4.938775139046273,-0.3697403024400003,687.8042144661638,0.5909,8.663054814244745,12.601204359858176,3.0,-1.0
Ba3(TiN2)2,mp-1246374,52,-7.092936125,5.309473982644708,-1.164293316798518,705.2414498576103,0.0,6.38170625,10.64392585,3.0,-1.0
Ca7MnN6,mp-1246381,60,-6.011949944107143,3.1107433383015195,-0.9465400329596554,895.7812618365828,0.0,6.26945208,12.97068226,3.0,-1.0
K2MnN2,mp-1246385,62,-5.825407310499999,2.6317174302779924,-0.36791756258303465,406.7193858277536,0.0,5.50414738,12.2010782,3.0,-1.0
ZrCrAgS4,mp-1246416,8,-6.25608446142857,4.420424285610676,-1.266761094166667,285.00552494420737,0.5796000000000001,3.63743256,14.082670921910994,3.0,-1.0
ZrCrAgS4,mp-1246425,74,-6.2745977889285705,4.350109406295545,-1.2852744216666667,579.2246706132613,0.3395000000000001,7.44108189,10.26384634,3.0,-1.0
Ba3(FeN2)2,mp-1246438,52,-6.584555205555558,6.153400959358816,-0.5282433166133337,625.7423171867399,0.0,6.10732011,10.12312921,3.0,-1.0
Sr2RuN3,mp-1246460,15,-6.669249353333334,5.398744362203177,-0.5841212325788886,391.6463026665467,0.0,6.2799520348061275,12.546345879146646,3.0,-1.0
Ca4SeN4,mp-1246485,62,-5.888991861944442,3.07681919356371,-1.07474744548486,637.4832746049645,0.0,3.64929101,13.47036469,3.0,-1.0
Ca4PbN4,mp-1246488,62,-5.524802913611111,4.053803315943613,-0.6864767646688891,693.9682750317893,0.0,3.59646986,16.13300041,3.0,-1.0
Ge7PbN10,mp-1246521,7,-6.585335930833334,5.463144458940654,-0.1631934902111109,520.2137103660968,2.2915000000000005,7.12962249,10.34353387192785,3.0,-1.0
Sr5(CrN3)2,mp-1246530,15,-6.788731027692307,4.580431300105781,-0.98347454058564,453.9822750054155,0.0,6.1157037969771135,13.622942867682545,3.0,-1.0
Ca(CrN2)2,mp-1246562,205,-8.299813883095236,3.727803264656453,-0.7110162301695224,1069.5914843781268,0.0,10.22678939,10.22678939,3.0,-1.0
Sr2MoN3,mp-1246574,15,-7.355538228333334,5.016437529505031,-1.008534545078889,414.7014678477161,0.0,6.34402864680383,12.528974742275537,3.0,-1.0
Li2Ca5N4,mp-1246584,130,-4.933788668181818,2.1858096414558115,-0.7832674060169693,821.3738443502492,0.0,7.93095015,13.05841387,3.0,-1.0
Sr5(CoN3)2,mp-1246638,15,-5.990883599230767,4.817038982557887,-0.5771239852010257,441.2486381881497,0.0,6.107135351923791,13.263278139666948,3.0,-1.0
NaReN2,mp-1246646,61,-7.714093790625,6.0565327291020346,-0.2980628463983326,1040.5868062207662,0.0,5.93764532,14.17746939,3.0,-1.0
Sr4CrN4,mp-1246666,62,-6.268594808333334,4.188342009547235,-0.9107213379096296,727.1249347487718,0.9452000000000004,5.258947,11.848994,3.0,-1.0
Sr5(MnN3)2,mp-1246690,15,-6.599580752307693,4.6924119158951445,-0.8699151882248974,447.31270787099686,0.0,6.1169681405898695,13.41905545110693,3.0,-1.0
Ca5Sb3,mp-12467,193,-3.78745144,3.7581600080882582,-0.9855760499999996,499.881395034824,0.0,6.990218,9.087047641977676,3.0,-1.0
Ca5(CoN3)2,mp-1246702,15,-6.255424651923077,3.5774778964736287,-0.7200809507138458,373.4637772121241,0.0,5.814725835563433,12.511501828540045,3.0,-1.0
Ba4GeN4,mp-1246705,2,-5.498257886111111,5.742106741031583,-0.5972801166133337,392.12215736974196,1.0910000000000002,7.038704203862313,9.217443595316057,3.0,-1.0
Ba5Hf2N6,mp-1246779,15,-7.030868470769232,5.979344723291434,-1.0905557803292298,626.3280007792816,1.1559,6.7606581289916585,14.964143384982414,3.0,-1.0
Ba5Zr2N6,mp-1246780,15,-6.750737786153848,4.976643344126748,-1.0272694372523072,636.0505262048355,1.1319,6.8003653524761445,14.998638756713989,3.0,-1.0
HfCrAgS4,mp-1246783,8,-6.488146992142857,5.473295853748046,-1.2974681648809523,283.13151522902507,0.7101999999999999,3.60183714,14.17815909776292,3.0,-1.0
Sr8Ni3N8,mp-1246821,12,-5.58420418263158,4.65019514331837,-0.6117811527564909,353.19569282845475,0.0,5.3231061568933615,9.597908234114607,3.0,-1.0
Zn7SnN6,mp-1246829,60,-4.311606369285714,5.371484665947641,0.012865791479999951,816.8870208014345,0.10099999999999998,6.035762,12.47579433,3.0,-1.0
Sr4GeN4,mp-1246832,52,-5.491480330833332,4.38215851133475,-0.6924979287429625,726.2557737045752,0.6528,6.132529,11.909019,3.0,-1.0
Ba4MnN4,mp-1246840,2,-6.105455386666668,5.077180108050363,-0.7001799932416861,431.89677356498083,0.0,6.4677804765785085,9.424055710905343,3.0,-1.0
Ca3(WN2)2,mp-1246855,52,-7.855680296944445,6.406081139153296,-0.7731312602244442,563.9859556552788,0.0,6.01115797,10.06442358,3.0,-1.0
Sr5(FeN2)2,mp-1246863,130,-5.777309118181818,4.2502953305274325,-0.5775545020775759,946.7412359580792,0.0141,8.73104395,12.41935224,3.0,-1.0