pretty_formula,task_id,spacegroup.number,final_energy_per_atom,density,formation_energy_per_atom,volume,band_gap,min_abc,max_abc,Dimension,Dim
K2TeCl6,mp-569149,225,-3.0653313355555563,2.5055487796887173,-1.633419703951111,277.3683150279007,2.6472,7.320216886216555,7.320216886216555,3.0,-1.0
SnCl2,mp-569152,62,-3.5617782483333333,3.5754026591343084,-1.3893536455066668,352.25657714162116,3.1079000000000003,4.353743,10.055936,1.0,1.0
BiI3,mp-569157,162,-2.59701997,4.658917194956159,-0.48150193125,420.3593100548389,2.548,7.829226339508266,7.918672,2.0,1.0
C,mp-569304,166,-9.226780699999999,1.2743710183702888,0.0,62.60103621225793,2.6904,11.939781671497895,11.939781885576847,2.0,1.0
PCl5,mp-569410,12,-3.0111327683333333,2.0230712211153663,-1.064042644145238,512.7678094656177,1.7518,8.78962488229128,9.240754040587165,0.0,1.0
BaN3Cl,mp-569812,11,-6.662644812999999,3.5292920664933174,-1.2565971390799997,202.1277643445279,4.1195,4.5840260000000015,7.964332263125202,3.0,-1.0
ZnBr2,mp-569960,166,-2.3373449133333333,4.049330159835932,-0.8261460166666668,92.3564175309442,3.3078,7.673833336634043,7.673834004468236,2.0,1.0
SbBr3,mp-570005,62,-2.868127939375,3.7022988117604823,-0.6081827243749998,648.5034385397063,3.119,7.1701380000000015,10.34172,0.0,1.0
AlH3,mp-570130,58,-3.474778935,1.2776152336228035,-0.1085824814649996,233.99096465698082,3.2609,5.452927,7.409609,3.0,-1.0
HgIBr,mp-570172,36,-1.538664935,5.100486127305493,-0.3837917616666666,265.2692540369492,2.619,4.5388408560115865,13.655510000000001,0.0,1.0
LiBeH3,mp-570218,14,-3.389621643666666,0.7736296479348087,-0.3161125005053336,488.7928471521311,4.8396,6.054225,13.212188164385376,3.0,-1.0
InBr3,mp-570219,12,-2.75600478,4.176095580222138,-0.8403889425000002,281.9432189578298,2.7596,6.934291385382142,7.143933833319358,2.0,1.0
CsGeBr3,mp-570223,221,-3.202175448,4.181414461525734,-1.1163334785862071,176.82231703597645,2.1234,5.612793,5.612793,3.0,-1.0
Ca3(AlN2)2,mp-570258,15,-6.3259115077777786,3.1358285223783255,-1.2905959466133337,243.8243924541985,2.5229,5.537123483575384,6.740384743330901,3.0,-1.0
Rb2TeBr6,mp-570324,87,-2.7166044711111117,3.7546161243569736,-1.0581679916666669,344.06508288720244,2.2447,7.884007282098173,7.884007282098173,3.0,-1.0
PbCl4,mp-570355,15,-2.837717144,2.963400154896928,-1.0921069486080004,391.13722779187515,2.1518,7.140052545127943,11.472504704791627,0.0,1.0
Ca3(AlN2)2,mp-570505,14,-6.336172947222222,3.064197593945078,-1.3008573860577777,499.04842025872716,2.2617000000000003,5.8304230000000015,9.600884368454867,3.0,-1.0
NaN3,mp-570538,12,-6.6836889125,1.7933222231118864,-0.39067171761833297,60.1963363096427,4.0526,3.6737749178338346,5.408603438082422,3.0,-1.0
Cs2ZnFe(CN)6,mp-570545,225,-7.45101538875,3.1594588070145373,-0.2887611037588789,285.4773250201372,4.1841,7.390869581579152,7.390869581579152,3.0,-1.0
SrSi7N10,mp-570598,7,-7.956015254722222,3.2417352398139085,-1.3342707397481477,434.6700739091565,3.8931999999999993,6.78127,9.685631979814326,3.0,-1.0
N2,mp-570747,136,-8.3291500425,1.0563212303584673,8.881784197001252e-16,88.074240584006,6.7967,4.061881,5.338196,0.0,1.0
H2,mp-570752,194,-1.11206167,0.038512799428188985,0.0,86.91779209193203,6.6942,3.811892,5.1311972899909035,0.0,1.0
BeI2,mp-570886,72,-2.8394270566666666,3.5881790810132945,-0.5769476916666667,243.25694496017132,4.0802000000000005,7.554103032049537,7.554103032049537,1.0,1.0
KBr,mp-570891,221,-3.062284665,2.9890448568342385,-1.6886219215,66.11074026321036,3.9019,4.043499,4.043499,3.0,-1.0
LiI,mp-570935,186,-2.9492793475,3.3163003011561663,-1.2328116066666668,134.03830271037458,4.381,4.5660730650739705,7.423564999999999,3.0,-1.0
LiCaGaN2,mp-570948,14,-5.419852481,3.989602578218512,-0.8503399561186662,240.99843740189644,2.135,5.820766000000001,6.974227000000001,3.0,-1.0
CsMgH3,mp-571020,59,-2.7584262410000004,3.004943161821713,-0.3154477597582068,531.2751435941001,2.9189999999999996,6.157607,10.019454,3.0,-1.0
MnBr2,mp-571084,227,-4.951083329166667,4.189660603227749,-0.8058968123850576,340.4516316625918,1.5845999999999998,7.837727126163554,7.837727126163554,3.0,-1.0
TlI,mp-571102,225,-2.624375805,6.050146329965991,-0.6815430075000002,90.92611225733576,2.4361,5.04740174321482,5.04740174321482,3.0,-1.0
LiMg10AlH24,mp-571132,3,-2.9999709902777787,1.387236971807407,-0.2385549050059256,360.49579185598327,3.5545,4.476794,8.980103999999997,3.0,-1.0
SnICl,mp-571146,62,-3.204271085,4.445907320757535,-0.9417926027533337,419.9129496976547,2.5128000000000004,4.431985,10.510224000000001,1.0,1.0
Mg(BH4)2,mp-571156,26,-4.027165156818182,0.8128875478036385,-0.3110781674812118,220.5800000954261,6.0803,4.311885,8.390713,2.0,1.0
Ca3(GaN2)2,mp-571162,15,-5.78240224,4.157538224014614,-0.9065267516133332,252.1893710865519,1.9148000000000005,5.603551223402532,6.808633563122706,3.0,-1.0
CsBr,mp-571222,225,-3.05206363,3.4852626330686816,-1.7858991739655177,101.39218929121084,4.4247,5.234073690807381,5.234073690807381,3.0,-1.0
GaCl3,mp-571266,2,-3.2493148975,2.0507330196534626,-1.55190278932,285.1575871875024,4.3149,7.116952,7.291942650446037,0.0,1.0
CNCl,mp-571324,15,-6.440044226666667,1.6533442580006,-0.29567627187999945,370.42739337166495,3.7938,7.659546781391834,8.275583682556839,0.0,1.0
KNa(BH4)2,mp-571414,156,-3.9251704475,1.0904463272153786,-0.4500264478022221,139.75344450992225,6.187,4.703490150302113,7.2944309999999986,3.0,-1.0
SnI4,mp-571436,215,-2.375880722,3.4791113138617904,-0.3547562590000002,298.9389586636472,1.7788,6.686428,6.686428,0.0,1.0
YI3,mp-571442,148,-4.19697799375,4.011727989975693,-1.4373507541666668,388.7706891426143,3.0589,8.77045532410091,8.770456177015253,2.0,1.0
RbGeI3,mp-571458,221,-2.797353878,4.234148231147551,-0.7622339234999999,211.31373307523282,2.4471,5.956291,5.956291,3.0,-1.0
PbIBr,mp-571465,62,-3.0521103891666663,6.245279887892443,-0.760914980833333,440.3179685644435,2.5906,4.518389,10.879502,1.0,1.0
WCl6,mp-571518,148,-4.288860367142857,2.8790235070981645,-1.362970034222857,228.7234020664459,1.9169,7.133109893541036,7.133110251038112,0.0,1.0
Cs2LiNbS4,mp-573030,2,-5.037462134375,3.1691859414301162,-1.5758381195869249,517.5907132718244,2.4983,7.027653999999999,9.964583842149255,3.0,-1.0
Ba2Li3TaN4,mp-573677,15,-6.320801787000001,5.580010887120403,-0.997564122952,316.9014661808575,2.4382,6.361655538058156,11.134610784756378,3.0,-1.0
Cs2LiIr(CN)6,mp-574653,225,-7.60740952875,3.2210805547857246,-0.3815548189672118,320.17717863340937,5.5251,7.678949126875239,7.678949126875239,3.0,-1.0
AlAgS2,mp-5782,122,-4.4701553125,3.801893009561081,-1.089127420729167,173.81532230192948,1.8992,6.639815281343376,6.639815281343376,3.0,-1.0
CaMg2N2,mp-5795,164,-5.135030768,2.8855466660582314,-0.9128098969519997,67.15789285488637,1.9919,3.5595932801955064,6.1202,3.0,-1.0
CsCu2ICl2,mp-579536,11,-3.2599044191666664,4.252446143514332,-1.0723160390751725,357.5391262618818,2.037300000000001,5.558182,8.830396803134331,3.0,-1.0
RbN3,mp-581833,123,-6.6248497525,2.471405128032788,-0.41536209365999976,85.65922117241213,3.7954,3.9068769999999997,5.611961,3.0,-1.0
Li7VN4,mp-582259,137,-5.4269145341666665,2.2972307184751943,-0.9055599602377776,224.8843797789152,2.1877,4.8945870000000005,6.7783130000000025,3.0,-1.0
Na3AsS3,mp-5830,198,-3.854704257857143,2.4775275875985026,-1.137269307053571,643.6610939132021,2.5478000000000005,8.634139999999999,8.634139999999999,3.0,-1.0
CaAlH5,mp-583071,19,-3.5169973692857144,1.8030426998903435,-0.3813032240142858,265.6034765559262,3.3422,4.417463,12.168541000000001,3.0,-1.0
LiSi2N3,mp-5853,36,-7.439222666666668,2.938002914841888,-1.3363947550788886,118.8398815547757,5.0687,4.811728,5.34706892638135,3.0,-1.0
Li3BN2,mp-5914,141,-5.685516548750001,1.7371880235553512,-0.9669990910711116,228.0624470767564,3.4434,6.991060465400152,6.991060465400152,3.0,-1.0
Al2CdS4,mp-5928,82,-4.533274197142856,3.0000152210401643,-1.3467026417857144,163.08297108326244,2.7413000000000003,6.495838760830197,6.495838760830197,3.0,-1.0
NaMgAs,mp-5962,129,-3.1636643233333337,2.882363055209636,-0.6389807661111112,140.81852416241975,1.8747000000000005,4.422981,7.198295,3.0,-1.0
CsPbBr3,mp-600089,221,-3.2014370580000002,4.419040946876881,-1.2976712455862067,217.87748562431256,3.1527000000000003,6.017334,6.017334,3.0,-1.0
KCSN,mp-601401,57,-6.092458080625,1.5233316185452173,-0.6517976552512499,423.7353099088045,3.8732,6.7537850000000015,8.010558999999999,3.0,-1.0
Li16Nb2N8O,mp-6031,148,-5.4103858340740745,2.6507385555998564,-1.017392540874938,266.1896554218089,3.4130000000000003,9.198289032988688,9.198289121393662,3.0,-1.0
Zn(BH4)2,mp-604315,26,-3.8102571531818175,1.8341805490791936,-0.12512802202666634,172.18388403349826,4.2519,4.232956,8.160898,2.0,1.0
BN,mp-604884,187,-8.7846848625,2.128161409742348,-1.468752883273334,38.728980052455825,4.4220000000000015,2.5129795503577017,7.081536,2.0,1.0
Cs2Li3I5,mp-608311,5,-2.8604974860000003,3.7800858747323134,-1.3467338440862069,404.651110204242,4.1765,4.752669476373585,10.936803306751717,3.0,-1.0
BiBr3,mp-610430,14,-2.91048451,5.080780411489116,-0.7102810274999998,586.5801697721017,2.5206,7.290692,10.244327,2.0,1.0
PS,mp-612,15,-4.912246278125,1.699293239003449,-0.4691084139732151,492.8087730048909,2.5182,7.268822893759966,9.620034508109883,0.0,1.0
Mg4P6SN12,mp-6137,217,-7.064804446956521,2.7624356579749194,-1.074217860570154,290.4631325917543,5.1057000000000015,7.2261055768725075,7.2261055768725075,3.0,-1.0
K2PdN2(ClO2)2,mp-613733,1,-5.223005713636363,2.556420222199148,-1.3324613583890914,225.742667322392,2.0217,4.50638,7.8432737537585036,3.0,-1.0
CsCSN,mp-614311,62,-6.103475110625,2.847600440170983,-0.7165638289840093,445.4877655615508,4.3852,6.439578,8.509803,1.0,1.0
CsI,mp-614603,225,-2.755638945,3.554949583391213,-1.5459314514655171,121.35883085961832,3.8556,5.5572780583521295,5.5572780583521295,3.0,-1.0
OsC3I2O3,mp-616196,12,-6.921177347222222,4.273317171840331,-0.8442108820833321,410.39762209465835,1.8225,6.8238448165312935,9.836233652340107,0.0,1.0
NaNb(CuS2)2,mp-6181,40,-5.269334921875,3.1024211466889846,-1.0810436638541674,397.41352068871095,1.7915,7.672986,9.670467177336368,3.0,-1.0
Tl2Pt(CN)4,mp-621092,14,-7.196566157727273,5.408676823738847,0.031727044134545294,434.68270944784564,2.6965,6.333394999999999,10.050514703795523,2.0,1.0
K3Co(CN)6,mp-6219,14,-7.4008749153125,1.8292918645047909,-0.30618541770499963,603.3494181613728,4.3264,7.1475940000000024,10.488323,3.0,-1.0
B6As,mp-624,166,-6.561095420714286,3.5524867434252454,-0.17031413071428553,130.68185054081042,2.9721,5.334232466211517,5.334232773601562,3.0,-1.0
BN,mp-629015,194,-8.78526619,2.0714565732532253,-1.469334210773333,39.78916181519294,4.0021,2.5159445035946244,7.258253,2.0,1.0
HBr,mp-632229,36,-2.7663866375,2.3761612731764092,-0.3280550368099999,113.08781002460206,4.9445999999999986,4.6024888514596105,5.540272,0.0,1.0
H2,mp-632250,229,-1.12145603,0.023670127850447698,4.440892098500626e-16,70.7103805,7.3872,4.511992353716924,4.511992353716924,0.0,1.0
CsH,mp-632319,221,-2.22518832,3.870625262107666,-0.15761880327551706,57.45025770585188,2.9646,3.8586080000000003,3.8586080000000003,3.0,-1.0
HCl,mp-632326,36,-3.1293465125,1.2173797345643775,-0.8825526934400001,99.4674275510652,5.9709,4.383799288493601,5.368192,0.0,1.0
CdCl2,mp-632403,5,-2.56246383,3.45310232238794,-1.4189332588400003,88.15407469924192,2.8987,4.2016066625159,4.995356303439425,2.0,1.0
CaAlH5,mp-632787,19,-3.5162219871428566,1.834279747646988,-0.3805278418714287,261.0803559729555,3.3013000000000003,4.3272910000000016,12.160857,3.0,-1.0
BH3,mp-634117,14,-4.24439884875,0.5749148817169997,-0.14474841000666672,159.83763732654631,5.2841000000000005,4.310509,6.6194320000000015,0.0,1.0
NaHS,mp-634657,11,-3.62628152,1.7569317018298654,-0.950488605026111,105.97374825887596,3.1638,3.967974,6.028481078807246,1.0,1.0
H2,mp-634659,225,-1.11598378,0.041849643466743434,4.440892098500626e-16,39.993739686668036,7.5517,3.838565931223795,3.838565931223795,0.0,1.0
KHS,mp-634676,11,-3.653862355,1.663098471143755,-1.046153863248333,144.12034594986474,3.2359,4.394904,6.676479525745436,3.0,-1.0
Cs2SiSe4,mp-637251,12,-3.90637238,3.792131497440789,-0.8778345693195811,533.9957854949896,1.9376,8.68154145362677,10.35810362412155,3.0,-1.0
Rb2BaPt2(CN)8,mp-637582,123,-7.655434622857142,3.4643204209040444,-0.34801188495428564,434.54253261795657,1.7118,7.0278089999999995,7.863324,3.0,-1.0
SeO2,mp-638005,55,-5.1585208045833335,3.718625639550373,-1.1627733328645835,396.38606311623084,3.3095,5.20779,8.772649000000001,1.0,1.0
LiB13C2,mp-638070,44,-6.8640351584375,2.3040130976230024,-0.16437407796874925,247.21336621451712,2.7103,7.317247192049821,7.317247192049821,3.0,-1.0
OsC4(ClO2)2,mp-638236,15,-7.239629162272728,3.041452060366016,-1.0919181551381818,407.48562110071526,2.8624,6.169427703458401,11.816611095426852,0.0,1.0
AgNO3,mp-638686,61,-5.4711000345,4.1517201954617216,-0.7666951150593334,543.5451439580024,2.0191,7.0862789999999976,10.29958,3.0,-1.0
CsGeI3,mp-642690,8,-2.8541774739999997,4.157331105019944,-0.836083859586207,234.1660355486009,2.1808,5.9886279132343825,6.25770610713175,3.0,-1.0
Rb2H4Pt,mp-642735,136,-3.473585152142857,4.1064343341912135,-0.47488193778285703,299.278980215076,3.3391,5.962581,8.417975,3.0,-1.0
K3H5Pd,mp-642736,127,-3.088288796666667,2.354388352852376,-0.34275969023333314,322.6790937053824,2.9628,5.882536,7.406331,3.0,-1.0
CsGeBr3,mp-642739,8,-3.2140563839999996,3.856061589736092,-1.128214414586207,191.74159342857448,2.2936,5.7280791774137505,5.788630720488657,3.0,-1.0
PHSF2,mp-642795,14,-4.6621017955,1.8635259084834284,-1.6686792640392858,363.7131770902495,4.5691,4.5040809999999984,9.403315449092464,0.0,1.0
K3H5Pt,mp-642821,127,-3.2735126772222225,3.2783529527210487,-0.4289806930111111,321.5553623217993,3.1617,5.780245,7.458556,3.0,-1.0
CaC2,mp-642822,2,-6.796410503333332,2.1460468470057066,0.023309923333335075,99.19593134150905,2.5537,3.930766,7.449752342258162,3.0,-1.0
Rb3H5Pt,mp-642845,127,-3.208720091111111,4.073183354887154,-0.4074763984000001,372.23027713792055,2.7373000000000003,6.036243,7.852763,3.0,-1.0
Li4H6Ru,mp-642847,167,-3.8085760677272726,2.3522608310179374,-0.5041668777321211,190.43486133308758,2.3929,5.753284022308129,5.753284234588188,3.0,-1.0
Li4H6Os,mp-642996,167,-3.9689694622727267,3.6905455387404387,-0.4870198363684841,201.61241304834562,2.9954,5.8637534918255225,5.863753543456697,3.0,-1.0
Na4H6Ru,mp-643001,167,-3.4342253054545453,2.406281865344467,-0.34591453364121155,274.7597202050261,2.2907,6.5017103496518525,6.501710490285612,3.0,-1.0
Mg2H6Os,mp-643002,225,-4.189576771111111,5.456167141277982,-0.42665293574666585,74.52951543053892,3.4486,4.723686844574057,4.723686844574057,3.0,-1.0
Cs3H5Pt,mp-643005,127,-3.1750655677777777,4.543203703356356,-0.40219910854367785,437.7515832715776,2.2364,6.206625,8.398197999999999,3.0,-1.0
Cs3H5Pd,mp-643006,127,-2.9903594055555565,3.856858534828609,-0.3164958240992333,439.30430099189203,2.3242000000000003,6.328028,8.331986,3.0,-1.0
SrMgH4,mp-643009,36,-3.1883788291666666,2.5620126212833902,-0.4802608376911112,150.3120854415664,2.8881,5.613716999999999,7.054728639103633,3.0,-1.0
Cs2H4Pt,mp-643010,136,-3.4487250078571434,4.439032744109092,-0.4743451364774387,347.8365368529622,3.2857000000000003,6.230425,8.960657000000003,3.0,-1.0
Rb3H5Pd,mp-643022,127,-3.023549798888889,3.262591514436968,-0.3213089839555556,374.45757215242327,2.7413,6.109742,7.828703999999999,3.0,-1.0
Ba3(H6Ir)2,mp-643047,164,-4.32355188,5.662111586193099,-0.6582216878494118,237.1134664603761,3.2081,5.534613719285656,8.938217999999997,3.0,-1.0
Mg3ReH7,mp-643061,194,-3.970564176818182,4.090927668508481,-0.3411529073036357,216.0870619373213,2.7082,4.8468564984105935,10.621303999999999,3.0,-1.0
Ca4Mg3H14,mp-643070,189,-3.2642308804761897,1.775687714871826,-0.4937759790799997,231.298934999169,3.1652000000000005,6.239513453305314,6.860275,3.0,-1.0
Rb2H6Pt,mp-643101,225,-3.535436501111111,3.887914284144274,-0.4831702985244443,158.91095900485425,4.2083,6.079804513804864,6.079804513804864,3.0,-1.0
Cs2H6Pt,mp-643243,225,-3.512977103333333,4.157478082812132,-0.4796290563980076,186.50160515410687,4.0439,6.413068182418772,6.413068182418772,3.0,-1.0
K2H4Pd,mp-643257,139,-3.283780258571429,2.3371233455202187,-0.3752622086399998,134.03570343451125,2.7306,5.677890810199946,5.677890810199946,3.0,-1.0
Na2H4Pd,mp-643260,139,-3.302008508571429,2.7308391588249505,-0.3351323815923811,95.12104792345964,2.2828,5.029616232873737,5.029616232873737,3.0,-1.0
K3ZnH5,mp-643270,140,-2.615513877222222,1.9356386671676764,-0.3055556818999996,322.1216723886801,3.7682,7.756206667360405,7.756206667360405,3.0,-1.0
LiMg2H7Ru,mp-643276,194,-3.8102684454545455,2.659883280277225,-0.4409930589703027,204.36336992136955,3.1465,4.69630127613817,10.699425999999999,3.0,-1.0
K2H6Pt,mp-643279,225,-3.5766109055555555,3.3445888774589063,-0.4954858419688885,138.6823528747203,4.1698,5.810034791500822,5.810034791500822,3.0,-1.0
SrMgNiH4,mp-643293,198,-3.653357753214286,3.5007182397913432,-0.5063799490923806,331.3758992328689,1.91,6.920014,6.920014,3.0,-1.0
Ba2MgH6,mp-643370,164,-3.2975174655555564,3.912951274916247,-0.5334461679688888,129.43566267720593,2.9094,4.542894,5.735817913844285,3.0,-1.0
BaMg2H8Os,mp-643439,131,-4.027490820833333,4.70192109592553,-0.5054275982466668,271.3911084526365,2.3653,4.995026,10.877275,3.0,-1.0
BaMg2H8Ru,mp-643451,131,-3.872927728333333,3.6698296321885207,-0.5136099053299995,267.02935829191443,2.1511000000000005,4.969616,10.812182,3.0,-1.0
Rb3ZnH5,mp-643651,140,-2.5564800966666663,2.921492599419412,-0.28981019284444426,371.5571151254058,3.3641,8.12206047904896,8.12206047904896,3.0,-1.0
Cs3ZnH5,mp-643702,140,-2.52888298,3.6264977066714414,-0.2905903096547892,429.6525003946448,2.7803,8.530786846958023,8.530786846958023,3.0,-1.0
Cs3B12H12I,mp-643710,166,-4.933529859285714,2.673179189261516,-0.5321098265083241,414.6088144391092,4.5419,7.4697295205425585,7.469729709768754,3.0,-1.0
Rb3MgH5,mp-643712,140,-2.578339105,2.391583430364494,-0.27383181895555553,396.8047923667099,3.0699,8.376599834952186,8.376599834952186,3.0,-1.0
BaMgH4,mp-643718,63,-3.2266605483333333,3.3322098820964863,-0.4802942940799995,165.1103352630181,2.4893,5.707621,7.200630898420083,3.0,-1.0
Rb2MgH4,mp-643770,62,-2.645118298571429,2.227001821282818,-0.2850761784971425,594.3408496773861,3.8556,6.3978410000000006,11.236933,3.0,-1.0
Cs3MgH5,mp-643895,140,-2.5580841155555563,3.1250167651452547,-0.2819540629881223,454.91730720161377,2.6077,8.742834101216722,8.742834101216722,3.0,-1.0
Na2LiAlH6,mp-644092,225,-3.076328049,1.4415935273154163,-0.3041057391719999,99.00354045927472,2.8229,5.192644304497661,5.192644304497661,3.0,-1.0
BaAlH5,mp-644097,33,-3.5571788635714285,3.3925376159957277,-0.4338602968714283,331.5622674063252,2.7635000000000005,5.122376,9.172806,3.0,-1.0
CsCaH3,mp-644203,221,-2.99235782,2.9615519964395536,-0.4683153727582066,98.68709087228876,3.4935,4.621186,4.621186,3.0,-1.0
LiBH4,mp-644223,186,-3.9769783975,0.7125420792906043,-0.3857681836633334,101.53164437236177,6.7570999999999986,4.180003435420239,6.709922,2.0,1.0
Sr2MgH6,mp-644225,164,-3.2388045344444443,3.106366635072523,-0.5257309205614812,109.90158298473335,2.7583,4.206713,5.492439007437862,3.0,-1.0
Cs2MgH4,mp-644236,62,-2.6334995010714293,2.9065046166487454,-0.2977807239774383,672.2076879440259,3.8209,6.634197,11.704485,3.0,-1.0
LiHS,mp-644271,40,-3.91363147,1.3835331107281414,-1.039748338359444,96.05077039843177,3.4984,3.9444292922675137,6.17469,3.0,-1.0
LiHS,mp-644419,26,-3.913457905,1.3916150645167962,-1.0395747733594447,190.98589048878878,3.5253,3.943035,7.856314,3.0,-1.0
KAlH4,mp-644486,88,-3.260787689166667,1.2666890713621195,-0.2916341187466666,183.8226146087827,4.8028,7.369928016195207,7.369928016195207,3.0,-1.0
Rb2H4Pd,mp-644494,136,-3.2304644485714284,3.084692691088393,-0.3590506484971426,302.9505697454572,3.0301,5.9351449999999994,8.600211,3.0,-1.0
K2LiAlP2,mp-6450,72,-3.757866585833333,2.05437892272728,-0.6408885335793647,281.39355426822783,1.9856000000000005,8.629138717687763,8.629138717687763,3.0,-1.0