pretty_formula,task_id,spacegroup.number,final_energy_per_atom,density,formation_energy_per_atom,volume,band_gap,min_abc,max_abc,Dimension,Dim
Sr4MnN4,mp-1246888,62,-6.135313374722222,4.281176982453623,-0.8320333487046491,715.9219956046115,0.0,5.26005797,11.76165532,3.0,-1.0
NbCr3(AgS4)2,mp-1246915,6,-6.113548923571429,4.708534989611003,-0.9343004670238102,254.32529309073126,0.0,3.4016230000000003,13.887640960244793,3.0,-1.0
Ca4PbN4,mp-1246970,2,-5.534604453888887,4.419923381705439,-0.6962783049466665,318.24204307791086,0.8253999999999997,6.19550233207996,9.451681156998044,3.0,-1.0
NbCr3(AgS4)2,mp-1246977,13,-6.079251341071428,4.5509580083053685,-0.9000028845238097,526.2626194640249,0.0,5.785296,13.703946782092304,3.0,-1.0
HfCrAgS4,mp-1246990,1,-6.4688804510714295,5.344445319613479,-1.2782016238095244,579.915203802852,0.6589999999999998,6.131803814594901,13.292374483208663,3.0,-1.0
ZrCrAgS4,mp-1246994,46,-6.275101240714285,4.323548187203556,-1.2857778734523808,582.7830704999976,0.4523000000000002,7.4376543229584575,10.536463430058536,3.0,-1.0
HfCrAgS4,mp-1246998,10,-6.486299149285713,5.441816428372376,-1.29562032202381,284.76935390338434,0.5806000000000004,3.61061349,14.183404540105903,3.0,-1.0
ZrCrAgS4,mp-1247002,11,-6.23335658,4.428346573591134,-1.2440332127380955,284.4956516072615,0.0,3.60434158,14.075465530747655,3.0,-1.0
ZrCrAgS4,mp-1247006,59,-6.225556361428572,4.2909395034863165,-1.236232994166667,587.2118881997708,0.3803999999999999,6.13227164,13.24053795,3.0,-1.0
Ca2OsN3,mp-1247064,64,-7.116885744166668,5.72510995414044,-0.6008939486899992,362.4472108655125,0.0,6.07752028663774,12.04670543,3.0,-1.0
Sr(CrN2)2,mp-1247099,205,-8.29632661011905,4.22439259480606,-0.7526887610028561,1168.1136864580722,0.0,10.53161653,10.53161653,3.0,-1.0
Sr5(RuN3)2,mp-1247140,15,-6.379175948846152,5.1124840774854965,-0.6321745102010254,470.4936187718712,0.0,6.287607391026271,13.293382774218502,3.0,-1.0
MgMnN2,mp-1247154,166,-7.4319697275,4.784562519091312,-0.7652370036037937,37.22461904436768,0.000399999999999956,2.95586,14.758867862717654,3.0,-1.0
Ba4CN4,mp-1247171,62,-6.152219028611111,4.901119014519817,-0.7397131652244441,836.6467472450441,1.3105000000000002,4.05985916,15.62327944,3.0,-1.0
ZrCrAgS4,mp-1247190,10,-6.254637648571429,4.396881385869595,-1.2653142813095246,286.53157395725987,0.4882999999999997,3.63380897,14.048700778862743,3.0,-1.0
Sr5(VN3)2,mp-1247227,15,-6.8710587134615375,4.48717485244624,-1.1533624417394868,461.8562619639569,0.3460000000000001,6.159808959426178,13.727693596553864,3.0,-1.0
Cs3Mo2N5,mp-1247239,80,-6.97926427375,4.5886539658056105,-0.5652788623193103,956.2731834886353,1.5430000000000001,10.04661812820158,13.797418788760009,3.0,-1.0
Sr3(FeN2)2,mp-1247243,52,-6.615001690833334,5.13548681568029,-0.6351863274466673,556.9011260147895,0.0,5.88289573,9.94437168,3.0,-1.0
Ba2MoN3,mp-1247251,64,-7.398234225416666,5.642529943346973,-0.9747340166066666,485.71250085282315,0.0,6.678889583136837,13.391208798939793,3.0,-1.0
Sr5Hf2N6,mp-1247284,15,-7.027861191538463,5.462347348844494,-1.1758137228933334,534.5004054515189,1.0037000000000005,6.619994388532593,13.833738519304244,3.0,-1.0
Sr9(CrN4)2,mp-1247333,12,-6.043528345263157,3.9994324354165927,-0.878728149423158,417.1142818769762,0.06340000000000012,5.242100059778523,10.42847734171298,3.0,-1.0
Bi2(CN2)3,mp-1247346,155,-7.498761321818183,4.420603609989878,0.0626244823381835,202.10474869425133,1.5658,6.4202826414633725,15.282105091221249,3.0,-1.0
Sr5(TiN3)2,mp-1247347,15,-6.769953129615384,4.183953374506265,-1.2350897891753836,490.4472662606082,1.5967000000000002,6.346799163730093,13.645366093154188,3.0,-1.0
Sr5(OsN3)2,mp-1247351,15,-6.698624230384616,6.3232108107910685,-0.6511697463548705,474.0638699134133,0.0,6.308321830049636,13.231992978123564,3.0,-1.0
Ca5(ReN3)2,mp-1247365,15,-7.272174779230768,5.231386474460831,-0.9158757872523062,416.9890563789927,0.4925999999999995,6.04830011186696,12.713304477463081,3.0,-1.0
Sr7CoN6,mp-1247404,60,-5.357884438214286,4.641142401421176,-0.5972044600676186,1082.3955227969807,0.09169999999999988,6.68132718,13.73541058,3.0,-1.0
ZrCrAgS4,mp-1247411,1,-6.235794870357143,4.291100230419269,-1.2464715030952382,587.1898936620729,0.5613999999999999,6.167204269453943,13.279910753016974,3.0,-1.0
Mn4Te3N2,mp-1247496,62,-7.076089748055555,6.2772594656004665,-0.1892371873200768,667.2203278397552,0.05090000000000039,6.4233139999999995,10.679821,3.0,-1.0
Sr9(MnN4)2,mp-1247555,12,-5.919210413684207,4.058396757986212,-0.8061303230710705,413.4615015451271,0.0,5.207994170943562,10.502770829899688,3.0,-1.0
Ba2RuN3,mp-1247564,64,-6.694312024583333,5.902080506007148,-0.5326873782733325,470.1260155198682,0.0,6.6777805695586325,13.137202692085113,3.0,-1.0
Sr2InN2,mp-1247569,64,-4.967350973,5.046558380966019,-0.5602328506186659,418.63776918562246,0.0,6.5891504236542415,12.91074762,3.0,-1.0
Al14(CuSe8)3,mp-1248857,8,-4.311988810487805,4.573601365360808,-0.686682539908537,894.3946044885159,0.0,7.4697453891099945,18.456573215168735,3.0,-1.0
Ti2GaC,mp-12537,194,-7.770554625,5.332772629970926,-0.7590895660416672,110.52113763614756,0.0,3.0799406216920806,13.453339000000001,3.0,-1.0
Al2(CuSe2)3,mp-1257684,122,-4.10418546,4.718748488957622,-0.39834541127840856,505.58601943159056,0.0,17.278152024618866,17.278152024618866,3.0,-1.0
Al14(CuS8)3,mp-1258739,8,-4.89507872804878,2.9847607019110307,-1.2831899857317073,744.3480725810202,0.0,7.027874771825763,17.356925105462807,3.0,-1.0
Ca3Ga8,mp-12611,71,-3.186127719090909,4.644647542171363,-0.4368946590909091,242.40275858082748,0.0,13.28963239568025,13.28963239568025,3.0,-1.0
Ba3Ag2,mp-12612,148,-2.513385312,4.930208900803343,-0.22898041266666666,634.2627380239821,0.0,8.941180085992508,8.941180405754322,3.0,-1.0
Ca2Cu,mp-12614,62,-2.814743855,2.6295002496538675,-0.11127504499999988,362.9933634422954,0.0,4.149228,14.502154999999998,2.0,1.0
Al13(CuS8)3,mp-1262123,8,-4.7986215135000005,2.9464408928538304,-1.1900749483750004,738.8225509429103,0.0,7.016835312413781,17.261062469341567,3.0,-1.0
Al13(CuSe8)3,mp-1264143,8,-4.23967475575,4.60288317736191,-0.6173752241562503,878.9709252748285,0.0,7.425149936202568,18.31780252969403,3.0,-1.0
CoO2,mp-1272680,12,-5.7307145575,4.470409478608143,-1.1554983133333334,135.1072028850371,1.2544,2.8293944442643566,19.41917213385558,2.0,1.0
Na2Li(NiO2)3,mp-1290445,2,-4.694188155,4.587180987645602,-1.2891356422916675,117.6475152311534,0.22540000000000004,10.371071817943696,16.143758932965113,3.0,-1.0
CoO2,mp-1296922,2,-5.732417760833332,4.4740578034056995,-1.1572015166666665,134.99703109462388,0.0,2.8168569393565237,19.27261295925195,2.0,1.0
Ti2AlC,mp-12990,194,-7.89110376375,3.993101063259904,-0.7002686229166679,112.0523517672918,0.0,3.069086982896542,13.736366,3.0,-1.0
Zr5Si4,mp-1304,92,-8.06465916861111,5.6376039991322235,-0.9046859208333332,669.7549945138883,0.0,7.159662,13.065647,3.0,-1.0
SrLiGe2,mp-13139,62,-3.742580371875,4.2278655024451455,-0.531465414375,376.8003973088336,0.0,4.491301,11.625496,3.0,-1.0
BaLiGe2,mp-13140,62,-3.799495049375,4.598339155257813,-0.5310076977083331,418.2429781032012,0.0,4.667675,11.95802,3.0,-1.0
YZnGe,mp-13160,194,-4.801729316666667,6.121818859812289,-0.6853151238888889,246.24537472243907,0.0,4.242906535316799,15.794670000000002,3.0,-1.0
Zn3TeO6,mp-13199,15,-4.948408283666667,5.852488091670989,-1.7087558264166671,714.7043915543904,1.1079999999999999,8.79406315819741,10.541308783887699,3.0,-1.0
RbSc5Te8,mp-13336,12,-5.364394642142857,4.894119494062506,-1.2365884251785713,451.6146660203643,0.3563000000000001,10.355274200764411,10.980429472899136,3.0,-1.0
Y5Ge4,mp-13360,62,-6.526576817222222,5.556326882150854,-0.8794138187037043,878.7419768148578,0.0,7.680364999999999,14.768304999999998,3.0,-1.0
ScAg(PSe3)2,mp-13383,163,-4.6204946425000015,4.075887198057913,-0.5237880727872024,561.0232200306174,1.6484,6.535032236819648,15.168923000000001,2.0,1.0
LiSn,mp-13444,141,-3.27911233,4.860109070302598,-0.3198649691666671,257.584829359847,0.0,13.411480327522126,13.411480327522126,3.0,-1.0
ZrGeTe4,mp-13542,36,-4.7987687825,5.83112990625263,-0.5081134149999998,384.0222156606074,0.4213000000000005,8.791600566003268,11.144247,2.0,1.0
Cd3As2,mp-1372,137,-2.5078702265,5.962274632088968,-0.09048900850000016,1085.2355631631774,0.0015000000000000568,9.16923,12.90798,3.0,-1.0
AgAsS2,mp-13740,148,-4.051430961666667,4.454054201829025,-0.4420174261458338,552.3327139333244,1.5694000000000004,8.706295448291714,8.706295695251569,3.0,-1.0
Cu8SiS6,mp-13872,31,-4.440859989333333,5.183377455314576,-0.5037328839166667,466.98243206138517,0.8337000000000003,6.892284,9.670392999999999,3.0,-1.0
Ba2Ge,mp-13922,62,-3.312487058333333,4.799969083405329,-0.4921638866666663,480.5824742409759,0.05279999999999997,5.475823999999999,10.246022,3.0,-1.0
Ba(ZnSb)2,mp-14207,62,-3.0713480155,5.9137961682145965,-0.5320559095,574.6831289712165,0.22949999999999984,4.560167,11.766505,3.0,-1.0
Tl2SiSe3,mp-14241,2,-3.9222021441666666,5.8581347513227975,-0.4828097420052082,381.9504057054461,1.6828,7.083117,8.91911859880835,2.0,1.0
Y3Si3Pd2,mp-14244,63,-6.71983971125,5.915020315299918,-0.9654498337499992,316.5619749103074,0.0,5.6581431455562345,14.153455,3.0,-1.0
Sr3P4,mp-14288,43,-4.774431707142857,3.484958333457328,-0.95706210632653,368.56788802500716,0.8906000000000001,7.7630667109997855,11.311613804468395,3.0,-1.0
Ba3P4,mp-14289,43,-4.865465115714286,4.122515849489733,-0.9497428391836736,431.69906195478063,0.4838999999999998,8.13218226413378,11.885555313960767,3.0,-1.0
K2Pd3Se4,mp-14339,70,-4.233967346111111,4.873398960041951,-0.7068463200416661,486.0906648868977,0.9064,6.465581051293148,14.595872814455461,3.0,-1.0
Rb2Pd3Se4,mp-14340,70,-4.218191503333333,5.165583589827717,-0.7199293382638893,518.2197053227865,1.0371,6.53828500716916,15.1804775499723,3.0,-1.0
SrZn5,mp-1435,62,-1.5539576608333334,5.826695450863321,-0.22259111027777784,472.69841910111603,0.0,5.232011,13.16722,3.0,-1.0
Ba2SiTe4,mp-14448,11,-4.181235744285714,4.972888203242922,-1.061741544285714,543.0445452061701,1.1372000000000004,7.652906,9.73722567946846,3.0,-1.0
ZnP4,mp-14587,92,-4.6682482045,3.374717940182064,-0.08567079335714282,372.5902700509102,1.0050999999999997,5.045906,14.633668,3.0,-1.0
Na2PtSe2,mp-14588,36,-3.954563216,5.664987971469839,-0.816156196270833,233.9026158734412,0.985,5.758382788531603,11.454838,3.0,-1.0
LiSbS2,mp-14591,148,-4.234858848333333,3.570778221856425,-0.9888828882291668,538.0397025919007,1.1959999999999995,8.703497171377146,8.703497241478162,3.0,-1.0
RbGa7,mp-1460,166,-2.875668691875,5.019350538431314,-0.10351836812500048,379.4781699059652,0.0,10.351707716305796,10.351707857736569,3.0,-1.0
K5CuAs2,mp-14623,194,-2.71328511375,2.4706906742664687,-0.342105336875,549.6134202476269,0.25259999999999994,5.7870577911372205,18.95008,3.0,-1.0
K5P2Au,mp-14624,194,-2.82899865375,2.8308794464645084,-0.3724426540178567,533.0910436333902,0.4815,5.706242405177157,18.904723999999998,3.0,-1.0
K2VAgSe4,mp-14634,70,-4.3704215125,3.7895894427577854,-0.8553082777552081,484.49727488537286,1.0109,7.4577673458757054,13.614888190972595,3.0,-1.0
Rb2VAgSe4,mp-14635,70,-4.35100302,4.081238611206737,-0.8683560038802085,525.3403261103164,1.0475,7.695583775214781,14.163002631696608,3.0,-1.0
KAsSe2,mp-14659,9,-3.80915318375,3.291437054315958,-0.6188181069218746,548.7777165602141,1.7276000000000002,6.8773909581507,12.887271408656295,3.0,-1.0
Y5(Si7Os2)2,mp-14686,14,-7.300940916304348,6.513387260531178,-0.6402413664492748,815.1256621526604,0.0,7.971141999999999,12.824130339500025,3.0,-1.0
BaSi2,mp-1477,62,-4.616761071666667,3.6281584932761763,-0.360228115,708.4828050470917,0.7909999999999999,6.77785,11.602143,3.0,-1.0
Na6MnSe4,mp-14780,186,-3.8019386009090894,3.02145572839611,-0.9807326299118336,559.1635058229725,1.1332999999999998,7.2748820000000025,9.42087245223716,3.0,-1.0
Na6MnTe4,mp-14782,186,-3.4964523068181816,3.411631906913493,-0.8034683531504698,684.6098298709243,0.0,7.760629,10.092709780870251,3.0,-1.0
Ge(Te2As)2,mp-14790,166,-3.82470039,5.9829184850180654,-0.03691919214285682,203.40928727380887,0.7328000000000001,13.993967954129165,13.99396888063658,2.0,1.0
Ge2Te5As2,mp-14791,164,-3.844603861111112,6.081727514477974,-0.03562639777777813,254.77753218343673,0.5946000000000007,4.164264509166655,16.965002,2.0,1.0
K6CoS4,mp-14794,186,-3.6794771240909085,2.1786102714984232,-1.1646888564090914,642.9668949860722,0.4513,7.717331,9.808338106604044,3.0,-1.0
K6CoSe4,mp-14795,186,-3.4520516909090917,2.7926109364492544,-0.9289282920340912,724.6774305227444,0.4344000000000001,8.01614,10.21702370981628,3.0,-1.0
Al21Pd8,mp-1498,88,-4.696631925344828,5.109098253961784,-0.5553854801724136,921.7275926461293,0.0,10.703561972561564,10.703561972561564,3.0,-1.0
Sn2S3,mp-1509,62,-4.481608198,4.356626317071112,-0.7939855358749994,508.6327817770618,0.8572000000000006,3.8015489999999996,14.430494,1.0,1.0
K2VCuS4,mp-15147,70,-5.01212329875,2.6030074719081773,-1.3501395360625,409.4803583902864,1.2547,7.099381625072566,13.237907204991656,3.0,-1.0
Rb2VCuS4,mp-15219,70,-4.990223926875,3.0930096690495317,-1.3607063828125003,444.1867451085511,1.2546000000000002,7.339267877920589,13.761061545545461,3.0,-1.0
K2VCuSe4,mp-15220,70,-4.5792159225,3.693888575473212,-0.9057713544218756,457.2006529728248,1.1639000000000002,7.3448520631382355,13.731143075871945,3.0,-1.0
Rb2NbCuSe4,mp-15222,70,-4.724594225,4.098099135014877,-0.9564410042968748,521.2685951855706,1.6571999999999998,7.7057585328700755,14.468543996831885,3.0,-1.0
Cs2NbCuSe4,mp-15223,70,-4.7324925625,4.31104592618986,-0.9856222669046336,568.608805807312,1.6427999999999998,8.029814314706227,15.032506194153587,3.0,-1.0
CrSbSe3,mp-15236,62,-5.257108449,5.607828120827503,-0.4031518204062493,486.3753107366243,0.0,3.846492,13.460763,3.0,-1.0
Sr3As4,mp-15339,43,-4.344635821428572,4.560395953817337,-0.9582190528571428,409.67068799947714,0.677,8.09023140297637,11.7442280242431,3.0,-1.0
KSb,mp-1536,14,-3.0505494825,3.3514624913940607,-0.43084938899999997,637.5998347533496,0.8799999999999999,7.0845410000000015,13.596639606053325,3.0,-1.0
TiTlPS5,mp-1542940,12,-5.2634570825,3.4003114124594886,-1.134034558441221,433.2135831476938,1.2668,6.767258756607128,9.826855167884457,1.0,1.0
Ag6Ge2O7,mp-15487,4,-4.742787103833334,6.507809808309482,-1.0120504364166674,923.157081656542,0.010800000000000145,5.5335790000000005,16.337592938185388,3.0,-1.0
NaSe2,mp-15514,122,-3.3398241691666666,3.653631095721317,-0.5709991118402774,657.7735552356845,1.2072999999999998,9.565805029112967,9.565805029112967,3.0,-1.0
Ba2LiSi3,mp-15521,70,-4.100181097083333,3.725180402963073,-0.42971333263888906,652.3288996591792,0.09229999999999984,8.785262795751757,12.394180439410265,3.0,-1.0
KTe,mp-1554,189,-2.962288135833333,3.1474624860032057,-0.835438197333333,527.6803915219559,0.21319999999999986,6.504608,9.678534592888427,3.0,-1.0
Sr2LiSi3,mp-15551,70,-4.035451087916667,3.063044625239141,-0.4414798490277783,577.764847317816,0.0,8.556737553341927,11.761216138425356,3.0,-1.0
Na3Ca3AlAs4,mp-15572,186,-3.803448238636364,3.0466172756169905,-0.8631931713636359,562.3445812541554,0.9426,7.232763999999999,9.475099737249682,3.0,-1.0
ScSi3Ni2,mp-15605,139,-6.359077089166667,4.790266090037523,-0.6642963349999995,170.96654658512625,0.0,12.19802245529881,12.19802245529881,3.0,-1.0
Zn3As2,mp-15700,137,-2.76350757,5.40983548854534,-0.14401404200000026,849.8048979165503,0.07339999999999991,8.440195,11.929281,3.0,-1.0
GaSe,mp-1572,187,-3.853180095,4.391991759201682,-0.5911766049218752,224.8582816869081,1.2567000000000002,3.819066714705309,17.801796,2.0,1.0
Zr2Cr30P19,mp-15746,174,-8.516649157450981,6.197526280975499,-0.4864676529971983,624.5134287369045,0.0,3.264341,14.863045641797445,3.0,-1.0
SrLi4N2,mp-15845,141,-4.151765274285714,2.399527683000461,-0.5474628321085712,198.46987924816625,0.9413,13.800315060520036,13.800315060520036,3.0,-1.0
Rb2Mo9S11,mp-15905,167,-7.3752681690909085,4.890588987495911,-1.1127798076988633,941.9525324594217,0.0,13.249247752373906,13.249248230299635,3.0,-1.0
Sc15C19,mp-15957,128,-8.363711481911764,3.594679712595012,-0.4138329561764702,833.8468719676805,0.0,7.54017,14.666417000000001,3.0,-1.0
RbNa2Ge17,mp-16126,227,-4.17946955525,4.581577182764174,-0.06940395320833304,990.4187282832763,0.0,11.18865666473192,11.18865666473192,3.0,-1.0
SrCu2GeSe4,mp-16179,40,-4.25466797125,5.1232289589478635,-0.6928469263802084,391.01273383896813,0.5919999999999996,6.3539751909471605,10.890297,3.0,-1.0
Li6Ca12Re4N16O3,mp-16181,220,-6.818786101341464,4.536188301552965,-1.3242642499226822,1127.1249319421472,0.0,11.355283525202179,11.355283525202179,3.0,-1.0
Tl2B2Se7,mp-16183,15,-4.099170128181818,5.284263741260591,-0.2306728695217796,617.8685686195493,1.3001999999999998,8.66275842059312,12.381816803866748,2.0,1.0
Rb2B2Se7,mp-16184,15,-4.136884626363637,3.6827420171463285,-0.5194998963399623,672.0875719776028,1.7197,9.018277412184936,13.064975393421678,3.0,-1.0
Ba3Si4,mp-1619,136,-4.330685499285715,3.9522567377334767,-0.4080899892857148,881.1763838158078,0.001200000000000312,8.582233,11.963610000000001,3.0,-1.0
Y3Si3Rh,mp-16225,12,-7.094636232857143,5.28299206486687,-0.9461129085714292,285.3249503507708,0.0,5.709930692841201,13.587160073826466,3.0,-1.0
MoSe2,mp-1634,194,-6.6186930366666665,5.6922228012929175,-0.6728710415625004,148.11242010812632,1.4176000000000002,3.3269489459426635,15.451423000000002,2.0,1.0
Al4Ni3,mp-16515,230,-5.245955670535714,5.093005274525335,-0.6284251905357142,740.7864256536399,0.0,9.87275368902248,9.87275368902248,3.0,-1.0
Al10V,mp-16722,227,-4.323765069318181,2.8227177538352484,-0.0928864902272728,754.7752011128638,0.0,10.219842592760417,10.219842592760417,3.0,-1.0
Sc2GaC,mp-16733,194,-6.76481785625,4.090728722133893,-0.534864253124999,139.3512586971778,0.0,3.3088731842717998,14.696704,3.0,-1.0
RbYTe2,mp-16764,194,-4.8246778975,4.687510011781988,-1.3912761360416663,304.3508498175048,1.3562999999999996,4.524499186436106,17.167332000000002,3.0,-1.0
RbNa2Si17,mp-16836,227,-4.83113750175,2.48516433281663,-0.03912865945833275,813.7116863965429,0.0,10.479209360099645,10.479209360099645,3.0,-1.0
Ba6Ga5N,mp-16859,167,-3.3616643783333333,5.056402828250829,-0.4777664883233334,779.3558609025567,0.0,14.863104602223757,14.863105463643858,3.0,-1.0
Mg13Ir3,mp-16860,167,-3.2134855715625,4.662781074152028,-0.2560523271874997,635.7681031558116,0.0,9.718202751476221,9.718202966377063,3.0,-1.0
Na5GeAs3,mp-16861,14,-3.1963275652777785,3.1522163723888816,-0.3992559926851851,868.8862161873054,0.4858999999999998,7.6207759999999976,15.956502911993498,3.0,-1.0
Ag2SeO3,mp-16913,14,-4.485856177083334,6.00462026596979,-0.8361861953211805,379.07993911815055,1.7266,5.0065349999999995,10.197549,3.0,-1.0
Ca6FeN5,mp-16916,193,-5.96444812125,2.9345131623270824,-0.9422845297416664,414.605518197619,0.0,6.247594765106409,12.265317,3.0,-1.0
KNa4GeAs3,mp-16921,62,-3.1839683044444445,2.913111389204486,-0.4095915395925928,976.9323429304764,0.6434,4.823589,15.293916000000001,3.0,-1.0
Na3GeTe3,mp-16930,14,-3.2271946839285715,3.7968776779652162,-0.6562107846428569,917.3876183692673,1.2201000000000002,8.913362,13.072189999999999,3.0,-1.0
Sr3(GaN2)2,mp-16945,52,-5.5456314605555574,5.091064917378404,-0.7751288477244442,597.9727481425049,1.5856999999999997,5.992458,10.369357,3.0,-1.0
Ti(MnP6)2,mp-16977,15,-6.4713297973333335,3.919187579477697,-0.3927741110333879,448.63188999757307,0.0,8.533093015685989,10.651489200143473,3.0,-1.0
SrCu2SnS4,mp-16988,152,-4.579246721666666,4.228700144982886,-1.1055684821874998,543.8841519105563,0.4121000000000006,6.346582658871228,15.591788000000001,3.0,-1.0
NaAg3S2,mp-16992,227,-3.3628113425,5.490070671005377,-0.5697613490972225,496.9144491316271,0.9312,8.890623265485948,8.890623265485948,3.0,-1.0
Sr2VN3,mp-17012,15,-7.368620480833332,4.522398557797357,-1.3152396242455555,393.9141841063559,1.6685,6.2402055025841925,12.361636240502307,3.0,-1.0
Al12Co4Cu,mp-17017,12,-4.972312682352942,4.313762648159755,-0.4147016347058822,719.5186505008992,0.0,8.612621884641456,12.376770925469415,3.0,-1.0