pretty_formula,task_id,spacegroup.number,final_energy_per_atom,density,formation_energy_per_atom,volume,band_gap,min_abc,max_abc,Dimension,Dim
Cd(BrO2)2,mp-1181899,14,-3.5521614621428568,4.657129082270269,-0.5265322171428569,239.7617885511833,1.3414,3.7035410000000004,9.518222999999999,3.0,-1.0
Ca5Pb3,mp-1182146,193,-3.167262958125,5.083010224386265,-0.5215203818749998,537.0622710165178,0.0,6.919509,9.466934571619527,3.0,-1.0
AgSbS2,mp-1182950,9,-3.916821564375,3.3268181965485253,-0.4399373201041668,586.5027042838361,1.5809,7.998097169273826,13.914933615346355,2.0,1.0
Ag2As2O7,mp-1182976,14,-5.195307526590909,5.15899214242491,-1.1313977904166672,614.8740583848754,0.0,6.330317,13.762267999999999,3.0,-1.0
Ag4Te(PO7)2,mp-1182984,14,-5.278646153571429,4.8058804165676525,-1.243435999824263,583.9410014063459,0.08400000000000007,5.596478,18.793978,3.0,-1.0
Ba(GaAs)2,mp-1183302,14,-4.109172771,5.356669131520892,-0.6504930420000001,528.995052075059,1.2657999999999996,7.5901619999999985,9.939381,3.0,-1.0
BaSnS3,mp-1183370,62,-4.7611393645,4.6127063560806905,-1.4916369073749998,507.20332174244254,0.8555999999999999,3.9944660000000014,14.771123000000001,3.0,-1.0
Cs3Pb4Au,mp-1183951,59,-2.87016284875,6.282842801459707,-0.2688282317241377,752.9742891607649,0.706,7.082613,14.09632,3.0,-1.0
CuTeAs,mp-1184180,62,-4.0060400225,5.76329619374819,-0.03883135416666642,306.64094247716594,0.0,4.196369,12.644892,3.0,-1.0
Mg2NiH4,mp-1185821,56,-3.4568195141071434,2.7456131548318234,-0.32258473903285684,538.6815177245487,1.2689,6.36824,13.102414999999999,3.0,-1.0
MgIn2,mp-1185913,187,-2.3996160066666667,5.494564255342512,-0.03173350333333325,153.48949671539856,0.0,3.328127657879877,16.001034,3.0,-1.0
Na,mp-1186081,217,-1.2760341562068966,1.002757779700991,0.0386180604597703,1104.0421854970546,0.0,11.277232119660704,11.277232119660704,3.0,-1.0
K2Ni3Se4,mp-1188089,70,-4.3574418,4.417770399352071,-0.6302358172638883,428.58778675497774,0.4156,6.09980022122897,14.344837030695922,3.0,-1.0
SnPbS3,mp-1188095,62,-4.457281924,5.558311572013088,-0.8290442188750007,504.41349580792615,1.1473000000000004,3.85485,14.432815,1.0,1.0
Sr5Pb3F,mp-1188272,140,-3.49984046,5.758865212457542,-1.1658518366137034,622.0742363331857,0.0,10.178936682456033,10.178936682456033,3.0,-1.0
Cs5Te3,mp-1188281,87,-2.6934967075,4.2497040024584685,-0.9551323762068966,818.4700999922694,0.9408999999999998,11.272400612598588,11.272400612598588,3.0,-1.0
Y6NiI10,mp-1188535,2,-4.738815201764706,4.70531395021998,-1.2200452305882357,656.8213813160006,0.6206000000000005,7.718135,9.730854548868766,3.0,-1.0
YAgSe2,mp-1188559,19,-5.285507364375,5.781487894938611,-1.2127948463802092,407.4960199994176,1.6561000000000003,4.286599,13.866074,3.0,-1.0
Ti(NbSe2)3,mp-1188631,182,-6.877351437000001,6.3803815813503855,-0.9598638367395836,416.59139514700723,0.0,6.053783365182801,13.125803,3.0,-1.0
NaAs,mp-1188662,19,-3.37699395,3.2696521285833837,-0.3901086391666668,397.8053868970613,1.1414999999999995,5.9908160000000015,10.579982000000001,3.0,-1.0
Zr3Co2Si3,mp-1188741,63,-7.8888188975,6.259944684701478,-0.8718589550000013,252.42267857877297,0.0,5.395954661341124,12.961694,3.0,-1.0
KTeP2,mp-1188829,11,-4.20405039625,3.1540433116305917,-0.4339824962857151,481.509333453841,1.4008000000000005,6.633032000000001,10.15971229963339,3.0,-1.0
K2Ag2GeSe4,mp-1188845,70,-3.5789415583333337,4.299351589694061,-0.6353211509675931,527.136905375232,1.1059999999999999,7.841380158596891,13.15158574736446,3.0,-1.0
Te6IrI3,mp-1188875,167,-3.429733746,5.58997024522537,-0.2027063615000003,795.2393090233716,1.1590000000000005,10.129073682416424,10.129073918953546,1.0,1.0
Sc3As2,mp-1188926,62,-6.829208125499999,4.592640050057667,-1.1660793005000003,411.7663276575012,0.0,3.8876449999999996,14.845669000000001,3.0,-1.0
Ba3Ge5,mp-1188954,63,-4.15841191,5.4458076136737095,-0.5494054393749996,472.7373515560917,0.0,6.772795457503866,10.475867,3.0,-1.0
Te6IrBr3,mp-1188957,167,-3.5607785375,5.694609583427416,-0.2998769754999998,698.395090568996,1.2675,9.58017710960554,9.580177179485773,1.0,1.0
Cr2Se3,mp-1189023,163,-6.478901565499999,5.514733058750687,-0.5201356909062497,410.5595674624497,0.0,6.3511220047334955,11.752889,3.0,-1.0
Sr3(GaAs2)2,mp-1189054,15,-4.178093875,4.661163381229247,-0.8713040544444447,500.1694681420405,0.7284000000000002,6.8924168922679065,8.651555756430923,3.0,-1.0
Y6PtI10,mp-1189258,2,-4.85442897,5.0212986383498865,-1.3185548205882351,660.5926010041101,0.7681000000000004,7.7236270000000005,9.762453194249947,3.0,-1.0
RbSbSe2,mp-1189259,2,-3.714076480625,4.251860535781154,-0.6887369136718751,570.4252826548985,1.6794,6.9165410000000005,12.882080776917055,3.0,-1.0
Nb3CrS6,mp-1189260,182,-7.478336259500001,4.881403791608443,-1.3988460803750002,355.8962642903792,0.0,5.804756728526441,12.196207000000001,3.0,-1.0
CsAlTe3,mp-1189272,14,-3.4690655895,4.340683086791692,-0.654889391086207,830.4250097437064,1.3547000000000002,7.308163,14.135815,3.0,-1.0
Sr3(AlAs2)2,mp-1189305,15,-4.431877042222221,4.131149427673498,-0.9656471488888884,495.6189988974914,1.1456000000000004,6.890853777604122,8.618911810422938,3.0,-1.0
Y3Co,mp-1189329,4,-6.76958088125,5.124449361912236,-0.14264809749999952,422.09864588308204,0.0,6.338302,9.496347,3.0,-1.0
Ba2InSbSe5,mp-1189339,36,-4.3023367977777776,5.335144885663771,-1.1692052401909718,563.9965038747204,0.8456000000000001,9.931794052233712,13.382144,3.0,-1.0
Y7Rh3,mp-1189474,186,-7.3321754755,5.94240655223256,-0.5963533351666669,520.3471877544705,0.0,6.220473,9.828100631389821,3.0,-1.0
Sb2S3,mp-1189633,31,-4.3821588264999995,4.253169420951939,-0.6467644103750004,530.531444368149,1.2954000000000008,3.8774019999999996,12.201114,1.0,1.0
Ba2YGaTe5,mp-1189739,36,-4.5213180672222215,5.362439921313992,-1.2936499643518518,663.469260227233,0.5495000000000001,10.470529298879306,14.351051000000002,3.0,-1.0
Y2Te3,mp-1189791,70,-5.904723818,5.252765956442909,-1.4321548146666665,708.8970928934683,0.7946999999999997,7.5553525082281245,14.533555239664723,3.0,-1.0
ZnSi(AgS2)2,mp-1189914,7,-4.10820554625,4.249637329991576,-0.8279394082291667,341.8977547118986,1.6859000000000006,6.46665,10.24319719494714,3.0,-1.0
AlBi2Se2BrCl4,mp-1190020,2,-3.729267428,4.584375992026389,-1.2122876427727498,597.3526373486608,1.1162,7.073246000000001,11.560652471814642,2.0,1.0
TlCr3Se5,mp-1190043,12,-5.951430638333332,6.173962655125745,-0.5291692185243053,406.21947809993287,0.0,10.353300498618305,12.733822524635599,3.0,-1.0
Ba3Sn2,mp-1190176,96,-3.396214195,5.263132795120172,-0.6410029550000005,819.5542634903132,0.3900999999999999,6.726375,18.11405,3.0,-1.0
Na3Ca3AlSb4,mp-1190339,186,-3.4582312645454536,3.469550671203688,-0.7107460754545449,673.1317342094247,0.4585000000000004,7.600092,10.11289030685219,3.0,-1.0
Li2SnS3,mp-1190364,15,-4.2540847062500005,3.4350210017692286,-1.2130201747569451,442.3958412301284,1.4195000000000002,6.4467699494169945,12.478100784029115,3.0,-1.0
BaAgSbS3,mp-1190401,15,-4.4170717816666665,4.632952646874406,-1.2004888360069443,664.0076507774867,1.4228999999999998,6.269748893123713,17.417606568352525,3.0,-1.0
Na2Zn(GeSe3)2,mp-1190476,140,-3.7209757931818186,4.031300660981383,-0.6200146459753791,601.7438170156993,1.4633,11.060071670028996,11.060071670028996,3.0,-1.0
Na2TeSe3,mp-1190500,14,-3.3387235066666663,3.848153372791025,-0.6286668739496525,708.4791410412453,1.2319,6.1048,12.994679,3.0,-1.0
Y5Al3C4,mp-1190521,127,-7.104237183333333,4.533981301618528,-0.3978866952777776,420.09296710911,0.0,3.5235489999999996,10.918992,3.0,-1.0
Cs2Cu2Sb2S5,mp-1190579,2,-4.116035952727272,4.111806558295951,-0.8785659619533697,643.5278516798028,1.1041000000000003,7.515281,10.003768687820255,3.0,-1.0
NbS3,mp-1190583,11,-6.400574379999999,3.992007840960719,-1.2705057198437508,471.95833507541687,0.0,3.380758,14.995224832950655,2.0,1.0
K4Ti4I12O,mp-1190669,87,-4.027844576666666,3.9619906356146766,-1.2393978765039682,790.7546966083299,0.0,10.635943024371462,10.635943024371462,3.0,-1.0
Sc5(In2Co)2,mp-1190710,55,-5.62129855,6.0407346417556775,-0.4498698195454545,440.8788543625761,0.0,3.335463,17.364022,3.0,-1.0
BaSi9Rh2,mp-1190822,15,-5.83492446875,4.673554184934157,-0.3786400729166661,423.4583123139208,0.14440000000000008,6.278449508223268,11.215130190304034,3.0,-1.0
Sc2Pd,mp-1190862,227,-6.6093870400000005,5.3346351693014595,-0.6611137000000001,488.90565659660723,0.014899999999999913,8.842600815548444,8.842600815548444,3.0,-1.0
Rb6HgSe4,mp-1190907,186,-2.806118910454545,3.966138680343721,-0.972434300397727,861.8397151126615,1.3393,8.3824,10.895915953666492,3.0,-1.0
TcCl3,mp-1190915,166,-4.684504217083333,3.082861384114912,-1.153961007028333,660.4502651851836,0.6751000000000001,9.210168366931192,9.210168401985383,2.0,1.0
SiAg2S3,mp-1190974,14,-4.286613237083333,4.226396107666479,-0.7017139658680561,534.3667099541831,1.7494999999999998,6.718746,13.437251106220536,3.0,-1.0
Rb2Zn5Sb4,mp-1190975,63,-2.4750445072727274,5.351312621425186,-0.2226998568181819,611.3136358944971,0.0,7.374881490508303,12.620902000000001,3.0,-1.0
NaCdSbS3,mp-1191034,15,-3.76600171875,4.070960829593432,-0.9684162492013892,576.5332400474473,1.5655,5.853373321691518,17.278336938739592,3.0,-1.0
CdIO4,mp-1191056,62,-4.173395485833333,5.2971419904884245,-0.9351347774999996,380.3282623344895,0.0,4.930886,11.12415,3.0,-1.0
BaGa4Se7,mp-1191072,7,-4.07920946875,4.855186594303325,-0.8706483701171877,662.7803201385334,1.4955999999999998,6.650097,14.988188769025465,3.0,-1.0
Ti7P4,mp-1191079,12,-8.123654805,4.624523311831844,-1.1307832084199134,329.60272031453417,0.0,7.5336171710222315,13.625744732299735,3.0,-1.0
Ba2NaCu3S5,mp-1191092,12,-4.45972299,4.483815716208887,-1.2947081517234849,480.4108587055396,1.0355999999999996,8.796243234884141,10.4690618820124,3.0,-1.0
K2Zn5As4,mp-1191100,63,-2.8080220640909093,4.727612759250782,-0.33929574009090885,495.201507716428,0.3451,6.873962643985855,11.773237,3.0,-1.0
Li2In2GeSe6,mp-1191200,9,-3.862336533636364,4.375023988907741,-0.6878174505208334,599.6262885580255,1.1985,7.524045277262558,12.885698120029234,3.0,-1.0
CuNiSbS3,mp-1191203,19,-4.704662006666667,4.955891794621883,-0.6334429748958333,455.9470745923719,0.4211999999999998,4.893109,12.444633,3.0,-1.0
SnSb4S7,mp-1191223,11,-4.396630689583334,4.351932118291823,-0.6602551993229161,633.55208597682,0.7078999999999995,3.8993589999999996,14.77170733925236,1.0,1.0
Ca2CdAs2,mp-1191256,8,-3.7608560636000004,4.446678554438778,-0.9103907976000001,639.3373244112101,0.6609000000000003,11.056744732115867,14.488620276486545,3.0,-1.0
TlHgAsS3,mp-1191338,121,-3.414160549583333,5.285519003917626,-0.4569236578124993,723.955232486831,0.1865000000000001,9.816219317551283,9.816219317551283,3.0,-1.0
HgBrO4,mp-1191395,57,-3.4177330616666666,5.532253994011573,-0.2638549316666665,413.6048421021529,0.0,4.777042,11.8623,1.0,1.0
HgClO4,mp-1191480,57,-3.54338628,4.526264148151159,-0.4533540772099999,440.3005406298395,0.04300000000000015,4.937494,12.146892,1.0,1.0
Ca8In3,mp-1191538,2,-2.5374247445454547,2.99160018565383,-0.3283474509090909,738.3259344830029,0.0,9.583966,9.740816493077775,3.0,-1.0
Cs3Te22,mp-1191593,87,-3.0784367704,5.478185493569251,-0.20488366735172348,971.7723795846224,0.0,12.424126199088974,12.424126199088974,3.0,-1.0
AsS2,mp-1191613,4,-4.378813689166667,3.0851744065304447,-0.5104476429166667,598.7359770247931,1.2919,7.366164,10.390956,1.0,1.0
PW6Cl17,mp-1191628,44,-5.551268962916668,4.909007766363282,-1.1980393259996431,587.4675386750049,0.0,10.305545283090506,10.305545283090506,1.0,1.0
YVB4,mp-1191641,55,-7.747471199583334,5.035526527030854,-0.702813821805556,241.5082814474237,0.0,3.452988,11.639588999999999,3.0,-1.0
Rb2Cd5As4,mp-1191656,63,-2.5777156736363644,5.459124934551114,-0.2857165313636362,628.2327377511433,0.0,7.43205693928841,12.748133000000001,3.0,-1.0
Te8RuCl2,mp-1191663,15,-3.6707362304545454,5.877377730611683,-0.31359995331999996,673.9914419271969,0.1863999999999999,8.700576312180246,10.701541820775406,3.0,-1.0
Sr2LiGe3,mp-1191694,58,-3.75147834875,4.302955964432972,-0.5586501923611108,617.6064515438533,0.0,4.636081,11.91317,3.0,-1.0
Rb4Fe2S5,mp-1191800,2,-4.5190136,3.1108152135181184,-1.0438234741477277,655.3793443704872,0.0,7.65585,10.475207481803118,3.0,-1.0
Li2In2SiSe6,mp-1191817,9,-3.996760342727272,4.23430758355522,-0.7493061537026509,584.6080787208679,1.4969,7.456539428697805,12.803789574794054,3.0,-1.0
Cu2SnSe3,mp-1191849,9,-4.0609422625,5.592417074449445,-0.2783223245052084,573.2850801894294,0.049100000000000144,7.06346942376089,13.45874765017028,3.0,-1.0
Ca2(ZnSn2)3,mp-1191862,63,-3.1395840677272733,5.88192242538345,-0.24432391136363665,558.2121645589709,0.0,6.393269999999999,14.02294528014461,3.0,-1.0
Sr2LiGe3,mp-1191880,70,-3.748944668333333,4.352067719419575,-0.5561165119444441,610.6369513701719,0.0,8.755538231748975,11.93127096494774,3.0,-1.0
YMnB4,mp-1191988,55,-7.702711222916666,5.3692800229709565,-0.6450871117480842,231.4401612181583,0.0,3.41428,11.449062,3.0,-1.0
Cs2Cu2Sb2Se5,mp-1192085,2,-3.7951634990909096,4.871488463243995,-0.5472745943255289,703.0236984251383,0.8208000000000002,7.752658,10.438450932793094,3.0,-1.0
Ba8CuSi16,mp-1192107,6,-4.5800491184,3.7267692015881737,-0.32980921319999995,718.0505089656504,0.0,6.7686990000000025,11.584250736577573,3.0,-1.0
Rb2Zn5As4,mp-1192151,63,-2.772187223181818,5.205661154089044,-0.32707269454545435,508.89106164629374,0.2866999999999997,6.927164487733925,11.888444,3.0,-1.0
Cs4Tl2O,mp-1192166,166,-2.3570565714285707,5.115384317877764,-0.5641164404248769,931.378300427636,0.0,9.999098273341447,9.999098744575932,3.0,-1.0
NaTl,mp-1192187,64,-1.9374890320833331,6.1068420823651275,-0.09933643374999986,741.9124827003128,0.0,7.792826,9.763601921806726,3.0,-1.0
Rb3NiO2,mp-1192212,92,-3.5180258133333333,3.850064393415128,-1.0098475075,598.8115987158462,1.3429000000000002,6.339175508423394,14.901254052448405,3.0,-1.0
CuIO4,mp-1192231,62,-4.595469483333333,4.55842585268151,-0.8278226233333328,370.7604109935643,0.9538,5.46877,10.522794000000001,1.0,1.0
Ca4Ni4Ge3,mp-1192309,63,-4.613849633636363,4.734886446950156,-0.5218469240909094,429.96585377469285,0.0,5.596630544976146,19.828778,3.0,-1.0
Sr3LiAs2H,mp-1192357,62,-3.805787716428572,4.065843460366216,-1.0150248452790476,687.1974474452362,1.4556,4.496307,12.631167,3.0,-1.0
Cs2Mn(TeS3)2,mp-1192359,165,-4.31548736,3.6642276694217393,-0.8539371531152036,696.3851354106079,0.0123000000000002,7.030811306112333,16.267018,3.0,-1.0
Ba3AlP3,mp-1192373,64,-4.689114249642857,4.0729740966847325,-1.0116362633163265,867.3896260325635,0.6943000000000001,10.326609619587837,13.080518,3.0,-1.0
K(GeAs)3,mp-1192374,62,-4.339310015,4.296694097415107,-0.20261891114285696,744.7769294620688,0.6880000000000002,3.875004,18.938802,3.0,-1.0
Ba3AlAs3,mp-1192376,64,-4.401396581428573,4.675607869406544,-1.0471332192857143,942.8893150148939,0.6808000000000001,10.648635121856417,13.509326999999999,3.0,-1.0
CsOs2O9,mp-1192392,9,-6.643401129583332,4.718807755424376,-1.5133127553484194,462.64739043346975,0.9209,7.9720730650518385,11.01079306532681,3.0,-1.0
Sr14(SnAs4)3,mp-1192393,146,-4.177306182413793,4.6864125108727555,-1.0190001833908051,879.402049057731,0.9251000000000004,9.593014769735946,9.593015065214168,3.0,-1.0
RbNb2PSe10,mp-1192452,7,-4.9766852028571416,4.420436847423868,-0.5798605749649235,820.3111227677284,0.9353000000000002,7.6743770000000024,13.774259129110105,3.0,-1.0
Ir(SeBr3)3,mp-1192469,2,-2.8556252957692303,4.216492215218664,-0.2357403947716343,904.3942958924392,1.6352000000000002,8.151353,13.929539665601482,0.0,1.0
Y10Cd3Ru,mp-1192484,194,-5.751886808928572,5.550538679258794,-0.27276037547619075,794.2060234575682,0.0,9.638697716457862,9.871106,3.0,-1.0
RbTa(CuSe2)2,mp-11925,40,-5.12940516375,5.294227865294078,-0.751858794609376,444.97500463238816,1.795,7.863221,10.252631693510207,3.0,-1.0
Rb(GeAs)3,mp-1192510,62,-4.320479428214286,4.503689175592126,-0.20234044928571449,778.9329958020971,0.8013999999999997,3.8919040000000003,19.442756,3.0,-1.0
Ba4Li2(CdP2)3,mp-1192527,63,-3.8886587930000003,4.690857103168819,-0.7725178928730154,769.0647484401442,0.4838,10.285601779228477,16.967420999999998,3.0,-1.0
LiCa3As2H,mp-1192528,62,-3.96741388,3.161484026384381,-1.0411715974219051,584.1222200119628,1.4416999999999995,4.28336,11.878292,3.0,-1.0
KCu2SbS3,mp-1192531,2,-4.176831254642857,4.097311623659424,-0.7687193792678576,622.7383577244839,0.9664,6.437024,10.532343719733467,3.0,-1.0
Sr3AlAs3,mp-1192533,64,-4.3163717282142855,4.162656740296218,-1.060461041785714,821.1332160955252,0.9804,10.206505769682837,12.806832,3.0,-1.0
Nb4NiS8,mp-1192540,194,-7.091706769230767,4.9316133685179295,-1.401762478846154,462.5353911164802,0.0,6.685301684791943,11.950121000000001,3.0,-1.0
Ba4Li2(CdAs2)3,mp-1192557,63,-3.640145815333333,5.3615520149865805,-0.8256718977777779,836.1940811512777,0.3489,10.578478760346076,17.374551,3.0,-1.0
Y10Cd3Ni,mp-1192560,194,-5.476741903214285,5.425123611388705,-0.24720496797619115,786.624519287183,0.0,9.643365191139962,9.767414,3.0,-1.0
Mg2GeSe4,mp-1192564,62,-3.949780061428572,4.186542904590657,-0.834460937767857,693.4647867330624,1.4932,6.395633,13.643248000000002,3.0,-1.0
Y10Cd3Pd,mp-1192597,194,-5.491932834285714,5.4647159713544236,-0.3052712469047622,809.9302953191146,0.0,9.770119897789586,9.797544,3.0,-1.0
KAg2SbS3,mp-1192667,2,-3.774010951071429,4.3249887176489406,-0.7277992661726184,726.0927770122514,1.7098999999999998,6.860081,11.07857237185374,3.0,-1.0
Te7RuI6,mp-1192722,2,-3.0389842192857146,5.390709228867241,-0.15172908678571415,1081.6399234087446,0.8648000000000002,10.266649000000001,11.727469900049414,0.0,1.0
V4P3,mp-1192783,63,-8.35175754857143,5.325472613073531,-0.8409744251020409,370.0410196511697,0.0,6.836947073715431,17.232387,3.0,-1.0
Cu3(MoO5)2,mp-1192830,14,-6.071942777666666,4.205990794984624,-1.4463720605,428.37106118896895,0.0,5.5397690000000015,13.928992000000001,3.0,-1.0
Cs4Mn(AsS4)2,mp-1192853,2,-4.269283117666666,3.264074837670794,-0.9462516707586208,1010.263306429936,0.02890000000000015,9.602302,11.58446718310838,3.0,-1.0
Nb8PtSe20,mp-1192941,12,-6.154403172758621,6.1247492386049815,-0.7475211871336206,682.5528887132963,0.0,10.511820799772273,19.672950305853288,2.0,1.0
Sc6Al16Ru7,mp-1192947,225,-6.286528805517242,4.9392455461769185,-0.6711924091379307,473.67223071141416,0.0,8.749790222090585,8.749790222090585,3.0,-1.0
Y8In3Co,mp-1192970,186,-5.9586161591666675,5.622282451004031,-0.3673546681944444,658.4134859063851,0.08889999999999976,7.0583100000000005,10.378478345875036,3.0,-1.0
Ti6Al16Ru7,mp-1193118,225,-6.47965515,5.242241588667783,-0.5409347029310342,451.82719413601717,0.0,8.613158807189032,8.613158807189032,3.0,-1.0
Rb2MoSe4,mp-1193232,62,-4.657455901785714,3.8243458693792745,-0.8302620324107137,1012.0653848437747,1.0365,7.441514,13.256129999999999,3.0,-1.0
Cs3FeS3,mp-1193282,64,-4.236187365,3.710231268475288,-1.1540188511668714,985.9789092812308,0.0,10.354425710394613,13.562638,3.0,-1.0
Te7IrBr7,mp-1193453,2,-3.1350409106666666,5.310665047548643,-0.315039396666666,1028.5579311222791,1.3075,9.899467999999999,12.070372263639634,0.0,1.0
Te7RhCl7,mp-1193541,2,-3.2804455846666665,4.315583968148326,-0.7374875035213331,957.5388884340672,1.3977999999999997,9.554657,11.758388526822586,0.0,1.0
Mn(NbSe2)4,mp-1193575,194,-6.725708441153849,6.365699589953432,-0.761537791031167,552.101071321027,0.0,7.022005496383067,12.92902,3.0,-1.0
Mn2P12W,mp-1193594,15,-6.744493326333332,5.04699121854044,-0.3284286764778329,437.8548311959957,0.0259999999999998,8.507408269981463,10.587645889256592,3.0,-1.0
Sc3Si3Ru,mp-1193608,62,-7.246590206785713,4.3989893749070665,-0.8826274882142867,483.47017231827033,0.0,3.9984839999999995,11.728488,3.0,-1.0
Nb4FeSe8,mp-1193638,194,-6.669205860384616,6.407872846507652,-0.7582431787500005,548.9374892412993,0.0,6.995246223675761,12.953474,3.0,-1.0
Y3Te3N,mp-1193658,14,-6.8174570392857134,5.477902870581928,-1.5629158510542862,804.5472618205937,1.1253000000000002,8.138425,12.011041,3.0,-1.0
Nb4FeS8,mp-1193686,194,-7.319910074615384,5.083599457217403,-1.4230529996153858,446.84597565274925,0.0,6.6466399222224295,11.679464,3.0,-1.0