pretty_formula,task_id,spacegroup.number,final_energy_per_atom,density,formation_energy_per_atom,volume,band_gap,min_abc,max_abc,Dimension,Dim
Hg2I3Br,mp-1223967,8,-1.472700661666667,5.209795120586863,-0.3366464758333333,274.68417349941683,2.515,4.567266125551479,14.070707876230712,0.0,1.0
K2(NbSe2)3,mp-1224047,38,-5.891039982727272,5.0080320619119805,-1.0273870845511368,550.8628942044928,0.0,6.1684096183403705,16.716597,3.0,-1.0
K4Ba2SnAs4,mp-1224063,9,-3.4881982468181816,3.5493536789218343,-0.6767816174545451,794.8119067704818,0.4924999999999997,8.051210749373412,10.649569645966967,3.0,-1.0
K(Ti3Se4)4,mp-1224082,2,-6.463973676551722,5.066919238324788,-1.229805166568965,615.0883851089626,0.0,7.168444,10.568278979607511,3.0,-1.0
In3Ag3(HgTe4)2,mp-1224083,81,-2.911623545625,6.088146919898707,-0.2549680849999998,570.0569962690245,0.08259999999999977,6.620417,13.006115,3.0,-1.0
K2PtI5,mp-1224094,63,-2.775549874375,4.418802136256716,-0.7865787894999996,682.2854777230286,0.0,7.906623532083273,11.524977999999999,3.0,-1.0
K4Ba2SnSb4,mp-1224100,9,-3.2540028268181818,3.7231090881971873,-0.6353560756363638,924.8411550439696,0.38459999999999983,8.383909465068253,11.256286862336976,3.0,-1.0
In3Cu(AsSe)2,mp-1224106,115,-3.90381795625,5.4516750515572525,-0.32077825308593777,218.0160675011478,0.0,4.281295,11.894281,3.0,-1.0
K4Ba2SnP4,mp-1224114,9,-3.685813341363637,3.0180047723458534,-0.600154000571429,741.3015945878833,0.7927,7.8901861930380965,10.396487441419096,3.0,-1.0
K(Zr3Te4)4,mp-1224116,2,-6.266517418965517,6.118423730661437,-0.9570132332068972,861.7992533391276,0.0,7.938981,11.85526129153491,3.0,-1.0
K4Ba2SnBi4,mp-1224198,8,-3.078724576363636,4.677746249923362,-0.5469748906363634,983.7958958107686,0.10519999999999996,8.440956738671806,11.559801439126973,3.0,-1.0
K3Ag9(SbS3)4,mp-1224211,82,-3.7583126160714286,4.5444404842709885,-0.6505953220178574,716.1581685061146,1.6541,9.772051198909164,9.772051198909164,3.0,-1.0
InGaS3,mp-1224212,1,-4.1824623304,3.8260153865157998,-0.9427125637749998,609.2148727942556,0.04220000000000024,6.756378999999999,15.581593596606028,2.0,1.0
In11S16,mp-1224223,115,-4.099829205555555,4.3978228588193815,-0.9207048018518518,670.6001076991656,0.0,7.795603,11.034792999999999,3.0,-1.0
Hg3(SCl)2,mp-1224250,26,-2.1512470485714283,5.9514647967250935,-0.6705723653957144,411.15765254245684,0.5972,4.690875,9.653824,2.0,1.0
In4Ag3(GeSe4)4,mp-1224264,82,-3.753738592222221,5.0914189898360585,-0.2748090369444443,762.1337102179832,0.0,12.59495279394123,12.59495279394123,3.0,-1.0
K6Mo6C5Se8N5,mp-1224269,79,-6.8127356543333315,3.966245643927108,-0.626075383621666,658.1443342943286,0.1654,9.566097106113132,9.566097106113132,3.0,-1.0
HfSc3Si8,mp-1224342,25,-6.5775633575,4.461458439908349,-0.5478043304166663,200.2572329481651,0.0,3.673814,14.599692999999998,3.0,-1.0
In4CuAg3Te8,mp-1224343,81,-3.32370352625,5.6766808279917536,-0.2768274612499999,546.1987677815816,0.0005999999999999339,6.523727,12.833915,3.0,-1.0
Ge(SbTe2)2,mp-1224348,160,-3.7447857142857135,5.8178176778927275,-0.10846656357142846,235.91924788300378,0.2354000000000003,15.062048919706012,15.062049671308115,2.0,1.0
Ge(SbTe2)2,mp-1224350,160,-3.748282818571429,6.140779417779187,-0.11196366785714268,223.51155733017242,0.36160000000000014,14.118050278990117,14.11805082885042,2.0,1.0
Ge5Te4Se,mp-1224356,139,-3.9955394010000003,5.92777386772562,-0.07711395373437498,266.8393107727285,0.4322999999999997,15.394423324250633,15.394423324250633,3.0,-1.0
K(MoS)9,mp-1224361,176,-7.79289731973684,4.3787416670680965,-0.9519449503223678,903.4284888029148,0.0,8.897181450858806,13.178265,3.0,-1.0
Ge2Sb2Te5,mp-1224375,164,-3.7926040666666654,6.243626979875428,-0.10143041777777816,273.08510247018296,0.2603999999999997,4.29406442480606,17.101346,2.0,1.0
Ge2SeS,mp-1224376,26,-4.44677166,4.593964678070553,-0.3930323963671869,185.2885232211516,1.1343000000000003,3.785688,10.915485,2.0,1.0
Ge(SbTe)4,mp-1224378,164,-3.8248484122222215,6.288892352067921,-0.07904435277777742,282.54731436181163,0.09590000000000032,4.3342494748831655,17.367316,3.0,-1.0
In2(PSe3)3,mp-1224455,2,-4.0422243035714285,4.320180987930664,-0.24176513620057397,794.2558247912127,0.7763,6.506059,15.371785044528988,2.0,1.0
In5CuTe8,mp-1224528,5,-3.3743384621428567,5.411833240235009,-0.3026218364285711,508.8659692951383,0.1440999999999999,7.732412410000129,9.017057062310297,3.0,-1.0
In3Cu3SiSe8,mp-1224530,81,-4.018192000666668,5.172952984407017,-0.42184019791666666,383.55414475073763,0.6911,5.88229,11.084952000000001,3.0,-1.0
In6Sn8S19,mp-1224536,1,-4.306209575151515,4.836074872120942,-0.8342857966477266,771.8238457844676,0.5041000000000002,3.864703,15.0962204351214,3.0,-1.0
In10CuAgS16,mp-1224550,115,-4.109286562142858,4.6702241711888455,-0.8944137820238096,651.6091246028078,0.0,7.7246070000000016,10.920295,3.0,-1.0
K10Mn4Sn4S17,mp-1224600,160,-4.719951220285713,2.570447776909869,-1.2105246343355909,1053.4383029853198,0.021300000000000097,10.17541076109982,10.175411641962649,3.0,-1.0
Fe2Cu10Sb4S13,mp-1224745,121,-4.619823587241379,4.88132755666401,-0.4957909772629303,561.6521501576093,0.0,9.00252546578142,9.00252546578142,3.0,-1.0
Ga3Cu3SiSe8,mp-1224891,81,-4.113699490666667,5.065445210252423,-0.4620653334166666,347.34588118412415,0.6956000000000002,5.679018,10.769999,3.0,-1.0
GaAg(GeSe3)2,mp-1224898,9,-3.9356435625,4.634810130687889,-0.3274259543229171,570.8269344255123,1.0565,7.341090093137735,12.797756557160517,3.0,-1.0
Ga3Cu3(Te2Se)2,mp-1224939,5,-3.74532870875,5.611315298654993,-0.3330842760156247,632.1749954116457,0.1029,5.959409576392362,18.26234670417589,3.0,-1.0
GaAgGeS4,mp-1224946,1,-4.274046808571429,3.7954692586720626,-0.7918126902380952,496.77606203366514,1.4169999999999998,6.9544710000000025,12.177458587650257,3.0,-1.0
FeCo16NiS16,mp-1225063,123,-6.181863090294117,5.463086115490087,-0.7833024388235301,477.3661548246092,0.0,6.9636130000000005,9.844244,3.0,-1.0
Ga40Mo8S,mp-1225257,12,-4.4039914948979595,6.512395224897635,-0.09048222536989786,915.0017063473134,0.0,9.638332048830543,18.48961375400214,3.0,-1.0
Fe2Cu3(Sn3Se8)2,mp-1225320,6,-4.347041182962963,5.862786161675178,-0.3014989406481484,645.1918151834017,0.02779999999999916,7.676698,10.881503416111029,3.0,-1.0
FeNi35S32,mp-1225604,23,-5.5995536608823535,5.376146223667799,-0.8655762723529418,968.6813640800842,0.0,11.850033321635935,11.850033321635935,3.0,-1.0
CuBi5S8,mp-1225738,5,-4.362247695714286,6.476529926370952,-0.6955836132142862,349.9686891632912,0.2643000000000004,6.975523902985352,14.222776810841475,3.0,-1.0
Cu5SeCl5O4,mp-1225822,4,-4.116942938333334,3.6865634118465733,-0.9673521659095836,574.7060861803676,0.09779999999999987,6.320745,9.661318970779094,3.0,-1.0
Cu8GeSe6,mp-1225860,9,-3.9878103489999996,6.2820000962788285,-0.09500034360416693,557.6196890659228,0.2850000000000001,7.423832030942645,11.644987997774837,3.0,-1.0
Cu2GeSe3,mp-1225866,43,-4.122676587916667,5.460438644788033,-0.23781398325520856,531.1011294950671,0.06789999999999985,6.871075295580018,13.167108167290573,3.0,-1.0
Cu2GeS3,mp-1225871,43,-4.521340337916667,4.379098371305698,-0.6479385386458342,448.8580092940182,0.058599999999999326,6.504655366299201,12.449332017269885,3.0,-1.0
Cu9Sb(AsS6)2,mp-1225890,121,-4.370549938333333,4.454159910351258,-0.5365509182291669,457.9169870518963,0.0,16.463452620944732,16.463452620944732,3.0,-1.0
Cu2GeTe3,mp-1225891,43,-3.7994061116666655,5.850104443772257,-0.09084878083333336,661.401623059493,0.0,7.399900930118053,14.157848187436185,3.0,-1.0
Cu2SiS3,mp-1225897,43,-4.772963015833334,3.9247028002467013,-0.7658468557291673,425.42213030007827,0.8605999999999998,6.352719050909539,12.274146080491713,3.0,-1.0
Cu2GeTe3,mp-1225914,1,-3.795566918333333,5.7827430882360975,-0.08700958750000018,669.1060825527287,0.0,7.395131,11.32938953455719,3.0,-1.0
Cu12As4S13,mp-1225920,1,-4.395225860344828,4.641932402376564,-0.4995078627801726,529.106319428973,0.0,8.773928999999999,8.870732823502463,3.0,-1.0
Cu12Sb3AsS16,mp-1225921,38,-4.3485774165625,4.567166733096872,-0.5421886654687507,623.8314625948258,0.0,6.574368218821486,15.275522,3.0,-1.0
Cu2AgBiPbS4,mp-1225935,62,-4.175013365555556,6.556432964282768,-0.5610566776851853,789.5910180929059,0.5335999999999999,4.153917,14.777091,3.0,-1.0
CsHgSbSe3,mp-1225936,36,-3.1520404508333333,5.629110722371531,-0.5160707158270474,408.3479661151842,1.0739999999999998,8.395379807283765,11.564179,3.0,-1.0
Cu2SnS3,mp-1225965,43,-4.42817622375,4.5983733933857485,-0.6570170911458332,494.000230583154,0.03410000000000046,6.722579071565912,12.841688689025444,3.0,-1.0
CsGa5(HgSe3)4,mp-1225982,1,-3.234447293636364,5.86426082720137,-0.5434682447070927,631.8490484634796,0.8055000000000003,9.140271,9.207171033806748,3.0,-1.0
Cu2Ag5Se4NO15,mp-1225986,1,-4.927562403703704,5.309034532504997,-0.92821820051253,386.6759166236402,0.5658999999999998,5.202862605184476,10.6357909491083,3.0,-1.0
Cr8CoCu3Se16,mp-1226059,115,-5.9112407399999976,5.653772507813237,-0.4624942683035706,566.526826616323,0.0,7.3727009999999975,10.422388,3.0,-1.0
Cr7Cd3(InS8)2,mp-1226071,6,-5.700602319285713,4.219664335394187,-1.007344930000001,568.2020605970413,0.0,7.326687,10.440492302626778,3.0,-1.0
Cu2SnTe3,mp-1226087,43,-3.74141421875,5.858112995980543,-0.13509955458333364,712.7333863714091,0.0,7.577462537007557,14.51086985067294,3.0,-1.0
Cr8Cu3NiS16,mp-1226091,160,-6.400613527142857,4.137164745787078,-1.012400158571429,472.9519021058485,0.0,6.941880817156255,12.020504358520114,3.0,-1.0
Cr6Co2CuSe12,mp-1226097,12,-6.041935743333332,6.124486471181341,-0.4140755141964284,390.6753130354499,0.0,6.629931498071606,17.09676531101401,3.0,-1.0
Cr8Co3NiS16,mp-1226110,115,-6.701790356785715,4.169394442146939,-0.9911722248214292,463.78454568146265,0.0,6.898935393907671,9.744333000000001,3.0,-1.0
CsBi4Se7,mp-1226121,12,-3.902075074166667,5.849200389271365,-0.4914984111947742,863.9089630043416,0.6576,11.10518671433961,19.81229541343274,3.0,-1.0
Cr8Cd3CuS16,mp-1226128,160,-6.038198764642857,4.165946259484695,-1.050338279642857,530.0511467618417,0.0,12.411543150734522,12.411544164607765,3.0,-1.0
Cr8Fe2CuNiS16,mp-1226149,160,-6.660900999642857,4.190815721631579,-0.9604879017857144,460.7943754658012,0.0,11.92528536234236,11.925285700819499,3.0,-1.0
Cr12Ga2(CoS8)3,mp-1226165,119,-6.535641254634148,3.9053822953224886,-1.0095566001219518,726.9765268192799,0.0,15.621512629903961,15.621512629903961,3.0,-1.0
Cu10Hg2Sb4S13,mp-1226169,121,-4.050159603103449,5.458931794384934,-0.4893216493318964,590.2835378028437,0.05059999999999931,9.158663620070564,9.158663620070564,3.0,-1.0
Cr8Fe3CuS16,mp-1226186,160,-6.754277381071428,4.167018097472863,-0.9577976332142858,462.29087289840487,0.0,6.883097616222655,11.947494165250887,3.0,-1.0
Co4Cu3(NiSe6)2,mp-1226198,12,-4.815156321666667,6.4147105934528375,-0.3274371653869049,772.0768208193723,0.0,7.136590836597683,17.50689301568619,3.0,-1.0
Co7(SbO6)2,mp-1226238,12,-6.154065602857143,5.7044673175885725,-1.5899602376190485,493.7225680588281,0.0,6.105509402302317,15.345767700415704,3.0,-1.0
Cs3Ag9(SbS3)4,mp-1226259,82,-3.7414431828571435,4.873632904496218,-0.6567612361176108,763.6704627540194,1.5930999999999995,9.98325362147822,9.98325362147822,3.0,-1.0
Cu5Sn(BO5)2,mp-1226321,14,-6.068755833611113,5.371115341955337,-1.6064756428240736,764.3150951012021,0.11129999999999997,6.474025263108647,12.286779136462936,3.0,-1.0
Cr8Ga3CuSe16,mp-1226330,115,-5.753349545,5.380806570296805,-0.5268332385714284,602.4087555028982,0.0,7.53115,10.621080000000001,3.0,-1.0
Cr8FeCo2CuS16,mp-1226359,160,-6.648370287857143,4.019945410235798,-0.9491537603571436,481.7554401655771,0.0,12.064397926520245,12.064397926756977,3.0,-1.0
Cs12Sn2As6O,mp-1226383,164,-2.947494205714286,4.444118237721708,-0.5206204879248768,858.575405233236,0.5659000000000001,6.4322989999999995,12.414830724287224,3.0,-1.0
Cs12Sn2Bi6O,mp-1226387,164,-2.676619129523809,4.846352682016382,-0.4694837245915436,1062.916837171285,0.1979000000000002,6.592175,13.644887445922633,3.0,-1.0
Cr2CoP3,mp-1226398,6,-7.638216771666666,5.8951920233219015,-0.5291717184523806,288.2643396040229,0.0,3.108823,17.620320231458226,3.0,-1.0
Cs4Ga3FeS8,mp-1226418,1,-4.35543262,3.3572073978488017,-1.2979440068265091,520.9110294636715,0.5357000000000001,5.870737,12.444767407315936,3.0,-1.0
Cu12Mo3S5O36,mp-1226426,6,-5.8177889562499985,4.238952883619656,-1.5080868966183034,699.9002778487556,0.0,6.827416,13.694456227829573,3.0,-1.0
Cu2Bi8Pb3Se3S13,mp-1226431,8,-4.317710831034483,6.685812105929822,-0.659323529919181,763.5466091644772,0.3540000000000001,13.639770596736955,16.657800778692483,3.0,-1.0
Cr3GaS6,mp-1226433,156,-6.375323085,3.7034700587009377,-1.0928053736249992,749.8627302954635,0.0,7.070468082579893,17.320276,3.0,-1.0
Cr19S30,mp-1226578,2,-6.93716848,3.7396574961498414,-1.0678297466071427,865.8132757626477,0.0,8.881197,10.699416431590183,3.0,-1.0
Cr8Fe3CuS16,mp-1226582,115,-6.737776998928572,4.1360760721599865,-0.9412972510714296,465.74927541363337,0.0,6.9118796906440725,9.748994999999999,3.0,-1.0
Cr8Co3NiS16,mp-1226633,160,-6.679365719285713,4.161138244413929,-0.9687475873214292,464.7047498875593,0.0,6.9260911227323625,11.879146389386447,3.0,-1.0
Cs(MoS)9,mp-1226696,176,-7.796223713157892,4.222163937401976,-0.9665869529503158,1010.7188899624823,0.0,9.429679627991822,13.125198000000001,3.0,-1.0
Cd4Te3Se,mp-1226811,160,-2.55080881625,5.436691134281373,-0.4736371527929686,278.3718828374369,0.31909999999999994,15.27671050348798,15.276710692447017,3.0,-1.0
Cd5TeS4,mp-1226820,119,-2.9982495769999997,4.864245958549895,-0.8332786572500002,279.2169273987603,0.4669000000000001,15.38741454908764,15.38741454908764,3.0,-1.0
Cd4Te5Pb,mp-1226837,44,-2.69457023,5.540206875372126,-0.3824991539999999,388.0972489873294,1.2226,12.82926937028816,12.82926937028816,3.0,-1.0
Cd5Te4S,mp-1226846,160,-2.582768413,5.350607190307138,-0.5167041743124999,342.78326638583803,0.2682,18.91932641455539,18.9193265901166,3.0,-1.0
CdBi8(Cl5O4)2,mp-1226921,65,-4.533886702962963,6.7675777000063935,-1.6247386378740738,556.1924688445839,1.4318999999999995,5.520785,18.455031745868823,2.0,1.0
Cr19S30,mp-1226930,2,-6.9359031422448965,3.721948798629433,-1.0665644088520407,869.9327374315668,0.0,8.881151,10.735363619055807,3.0,-1.0
CdFeCu4(SnSe4)2,mp-1226945,111,-4.16417833625,5.470675699408969,-0.3031686580468751,392.0270079815303,0.0,5.83789,11.502816000000001,3.0,-1.0
Cd4Ge(SeS)3,mp-1226966,9,-3.367146203181818,4.8432664390270075,-0.7106652096732957,586.5285560268508,1.5943999999999998,7.487797277489957,12.932652063815254,3.0,-1.0
Cd2In3Ag3Te8,mp-1226985,81,-3.060760375625,5.600941081641308,-0.3267037406250002,567.3584761872405,0.13829999999999965,6.606447,12.99935,3.0,-1.0
Cd2Ga2Se5,mp-1227014,4,-3.4311875205555555,5.051947177542254,-0.6110177524131947,499.00049383300836,1.1937,6.7406369999999995,10.850310114971832,3.0,-1.0
Ca6Ag3Ge5,mp-1227088,8,-3.6272041321428565,4.512964257436728,-0.509603663214285,341.1886932519856,0.0,5.883986278504143,14.555565630602267,3.0,-1.0
Ca7TlN4,mp-1227114,18,-4.898080029166667,3.4855450961748264,-0.8805182882933332,515.4308508883631,0.0,3.6109050000000003,12.12248,3.0,-1.0
Ca5BC4Cl3,mp-1227228,15,-5.485022561538462,2.3787255732029338,-1.0714789537651284,510.43948835249154,0.8801999999999999,7.282530283860549,18.750160941798576,3.0,-1.0
Cd8Cu7P30,mp-1227291,1,-4.514650979333333,4.3260658111707695,-0.10407007682539668,872.603789400796,0.0,7.424728999999999,18.23281769366713,3.0,-1.0
Ca2Ga7Ag,mp-1227351,115,-3.1710203160000003,5.4469660429868005,-0.3669778879166668,206.10847912216263,0.0,4.314653,11.071439999999999,3.0,-1.0
Ca4Zn51,mp-1227465,148,-1.4674261065454544,6.38506329581366,-0.15343840418181806,909.2358618935476,0.0,14.876556295733836,14.87655674826635,3.0,-1.0
BiSbS3,mp-1227486,62,-4.3790976950000005,5.372816125138688,-0.6914966648750009,527.799868152903,1.3483,3.9688849999999998,11.867692,2.0,1.0
BaSrSi4,mp-1227506,62,-4.5303809345833335,3.3194585323086305,-0.3120962406944443,674.9071341402413,0.6944999999999997,6.637281,11.353005,3.0,-1.0
BiSbSe3,mp-1227508,62,-4.007206384,6.343065923102981,-0.3058523874062501,594.3850249237372,1.0106000000000002,4.113691,12.417885,2.0,1.0
Ca11Si9As16,mp-1227537,1,-4.753077230833333,3.660614111654031,-0.7132072491666663,858.4241237361914,0.5657000000000001,7.1578300000000015,17.73458198878618,3.0,-1.0
Cu6Pb2Se6N2O27,mp-1227547,1,-5.33178740511628,4.637989113830927,-1.0635568223854073,619.1889030336648,0.0,7.949669085220593,9.552519639431786,3.0,-1.0
Ca4Cd3Au,mp-1227562,123,-2.20132256375,5.272016688822778,-0.4432037712499997,218.75188577744828,0.0,3.892062,14.440835,3.0,-1.0
Ca16Mg3Sn13,mp-1227563,38,-3.376139465,4.0417328235717935,-0.59442470421875,927.4460803811193,0.0,9.255490850493562,17.530422,3.0,-1.0
Bi4PbS7,mp-1227567,8,-4.390118685,6.4783108852293605,-0.75814257015625,324.90883835277384,1.1352000000000002,6.990962557816628,12.342969845839413,3.0,-1.0
Ca4GaSn3,mp-1227571,25,-3.5038779875,4.086140034833863,-0.6189766640625001,238.2076663246721,0.0,4.416921,11.417591,3.0,-1.0
Ca20(CdGa3)3,mp-1227579,89,-2.55347312375,3.031060216396136,-0.36180042367187504,967.6515621398191,0.0,8.102724,14.738623,3.0,-1.0
Cd2Cu10Sb4S13,mp-1227581,121,-4.1446465031034485,4.947433508433204,-0.5411044531250003,592.1187659244057,0.3709000000000007,9.168062969801687,9.168062969801687,3.0,-1.0
Fe2Cu13(GeS8)2,mp-1227624,215,-4.683773135909091,4.5140085460889265,-0.5915432556060607,1174.2998097817865,0.0,10.550175,10.550175,3.0,-1.0
BaSr4,mp-1227650,166,-1.74140335,2.86711139928882,-0.006024181333333089,282.5221861494012,0.0,17.806752357611817,17.806752721696594,3.0,-1.0
Ca4AlZn43,mp-1227673,21,-1.5375036825,6.356194824856697,-0.1638172120833333,783.7108469359508,0.0,8.295177997433749,15.115773999999998,3.0,-1.0
BaSr3(ZrSe3)4,mp-1227715,6,-5.761190947999999,5.2756554803204025,-1.6047332059062505,539.050398132451,0.2656000000000001,4.020983,14.826345237231765,3.0,-1.0
Ca4Fe3As8Pt,mp-1227730,115,-5.410617329375,5.925141805122228,-0.6121008850000003,314.5290637403048,0.0,3.937261,20.289548,3.0,-1.0
Ca3Mg2Ni13,mp-1227816,166,-4.854838177222223,6.154773737917062,-0.1682194783333328,251.4124826553303,0.0,12.306670825203097,12.306670903753176,3.0,-1.0
Ca3(CdGa2)2,mp-1227871,8,-2.6562195522222223,4.930973220794484,-0.4367794222222222,420.2375405964994,0.0,5.9870073435806805,16.789669787765867,3.0,-1.0
Ca3MgNi14,mp-1227887,160,-5.062336993333333,6.228703194883546,-0.14350403722222185,257.5961925088038,0.0,4.987998015565965,12.297145978865993,3.0,-1.0
Ba4GaSn3,mp-1228036,25,-3.46232907375,5.086665274307991,-0.6207422753125003,318.3407693255415,0.0,4.723158,12.738754,3.0,-1.0
Ba3NaB24,mp-1228056,123,-6.290994001785713,3.751775191292473,-0.3132451729761903,307.357452085914,0.0,4.256001,16.968377,3.0,-1.0
Ba5Mg18Ge13,mp-1228121,157,-3.0588069877777766,4.020799119350925,-0.3227165109722219,854.2415643405493,0.0,4.541461,14.737616132311356,3.0,-1.0
Ba3SrSn12,mp-1228128,25,-3.885661395625,6.2666149451145845,-0.4130828954166672,509.8570946753833,0.0,5.3410410000000015,12.980472,3.0,-1.0
Al8BC5,mp-1228130,166,-5.960675582142858,2.8449987093462115,-0.04796830279761873,167.3478657474304,0.0,16.943800072024047,16.943800474505267,3.0,-1.0
Ba4(NbSe4)3,mp-1228159,12,-5.420779738421053,5.506164764026544,-1.2138988872697372,535.4662486350701,0.0,9.407206509226052,12.12359455104504,3.0,-1.0
Ba4(NbSe4)3,mp-1228166,10,-5.3804281194736845,5.584386869948141,-1.1735472683223684,527.965819564947,0.0,6.0268809999999995,12.707259641085956,3.0,-1.0
Al4Si2Mo3,mp-1228192,5,-6.827731496666668,5.630119684849088,-0.34219144666666623,266.57553720121984,0.0,4.803901301093206,13.459474169328644,3.0,-1.0
Ba5Ga6,mp-1228211,176,-2.9302477254545454,4.707582813924184,-0.4062998013636365,779.5299229196958,0.0,7.8450617446377455,14.62541964,3.0,-1.0
Ba4Cu11(Te4S)2,mp-1228217,6,-4.1024585648,6.4515779107599345,-0.7080768102500002,600.5418933945226,0.0,4.356407,14.241034875990614,3.0,-1.0
Ba8Si43Au3,mp-1228259,155,-4.994467883703703,4.208907959736897,-0.2081361407407412,1143.028284104675,0.0,10.455681137275468,10.455681385161133,3.0,-1.0