pretty_formula,task_id,spacegroup.number,final_energy_per_atom,density,formation_energy_per_atom,volume,band_gap,min_abc,max_abc,Dimension,Dim
LiInTe2,mp-20782,122,-3.364541995,4.586735838518132,-0.6277398808333334,272.94144160205263,1.7491999999999996,7.879415706381978,7.879415706381978,3.0,-1.0
InPS4,mp-20790,82,-4.478639916666666,2.9474282652179578,-0.8024850735119049,154.3968558766309,2.4231000000000003,6.175249678541832,6.175249678541832,3.0,-1.0
Pb(NO3)2,mp-20820,205,-6.174740536111113,4.3094761910170005,-1.1645645074733326,510.4906376206063,3.6519,7.992131,7.992131,3.0,-1.0
SrN6,mp-2131,70,-7.5756757085714295,2.6156489203570628,-0.5179165115638084,217.9562142777612,3.6681,6.593590356679205,8.398757687914863,3.0,-1.0
As2O3,mp-2184,227,-6.039927479,3.295395903187349,-1.6288808357499989,398.76650131546893,4.0275,8.261861087227745,8.261861087227745,0.0,1.0
NaN3,mp-22003,166,-6.68383322,1.7981378919072304,-0.3908160251183333,60.03512196692457,4.0886,5.544127774950359,5.544128072162926,3.0,-1.0
Na3Ir(NO2)6,mp-22102,166,-6.2731293740909075,3.1426272470555663,-1.2074382004218174,283.86237942662325,2.6425,6.84927237900859,6.849272903710874,3.0,-1.0
K2NiPb(NO2)6,mp-22139,202,-6.023459753181819,3.3591673628075402,-1.1047142806945451,306.54574672235213,1.7468,7.5683887389960365,7.5683887389960365,3.0,-1.0
SiSe2,mp-22142,140,-4.58620471,2.560449165329134,-0.4471590515624999,241.26188758976002,2.2369,7.035830531447443,7.035830531447443,1.0,1.0
Rb3InS3,mp-22303,12,-3.6289113014285714,3.1520061839052587,-1.3271605088392855,492.4883691743808,2.2968,8.035057273804213,8.257363259135992,3.0,-1.0
Si3N4,mp-2245,159,-8.181977197857142,3.117167865635565,-1.3125727963599991,298.919929991094,4.658,5.659951,7.809186468625588,3.0,-1.0
Na3Co(NO2)6,mp-22516,166,-6.069788562272728,2.444720426773513,-1.1679206897399994,274.36703007295483,2.531,6.798971228395923,6.7989712331323675,3.0,-1.0
KInP2S7,mp-22583,5,-4.470781924545455,2.507045797513457,-0.9253652456379872,291.6446958155118,2.1283,6.525571940077668,6.757970178960322,3.0,-1.0
CsNO3,mp-22628,59,-5.816985897,3.4711164694096346,-1.5000117038122065,186.485389739602,3.1215,5.210698000000002,6.252798,3.0,-1.0
K2CaNi(NO2)6,mp-22650,202,-6.1248528859090925,2.621649783016901,-1.2837004675127266,286.9284305561332,2.0571,7.4033712294705305,7.4033712294705305,3.0,-1.0
Cl2,mp-22848,64,-1.84815707,1.6344098612381623,0.0,144.07913932572936,2.5794,4.407455243636627,8.260659,0.0,1.0
BiI3,mp-22849,148,-2.59764105875,4.78714895533529,-0.48212302,409.0992855970632,2.5587,8.926338614969186,8.926338796465268,2.0,1.0
Li2Se,mp-2286,225,-3.698379923333333,2.8269223624772817,-1.2604608530034718,54.53555076984047,3.1074,4.256620188183343,4.256620188183343,3.0,-1.0
RbBr,mp-22867,225,-3.070325455,3.1643773032979565,-1.76159514875,86.78052839266779,4.3724,4.9694969607043715,4.9694969607043715,3.0,-1.0
SbCl3,mp-22872,62,-3.287420776875,2.6287916765957253,-1.3147822343200002,576.3872652309527,3.7511,6.94773,9.353764,0.0,1.0
CdCl2,mp-22881,166,-2.62665707,3.611054751454053,-1.48312649884,84.29809599240728,3.5945,6.710022831736192,6.710023165128419,2.0,1.0
PbI2,mp-22883,166,-2.9214112366666662,5.112644211758223,-0.6678538033333332,149.7313959694829,2.4334,8.328713205312393,8.328713303123418,2.0,1.0
PbI2,mp-22893,164,-2.92102081,5.357292104517278,-0.6674633766666668,142.89371196996424,2.3703,4.689420130757,7.50316,2.0,1.0
HgCl,mp-22897,139,-1.61941049,6.2563269387201075,-0.84064481913,125.29991694380631,2.8204,6.496311520029807,6.496311520029807,0.0,1.0
KI,mp-22898,225,-2.808167825,2.972225316080415,-1.490962044,92.7433338439933,4.0433,5.080805467558072,5.080805467558072,3.0,-1.0
LiI,mp-22899,225,-2.912747535,4.0634062903226535,-1.1962797941666663,54.696876448648226,4.2403,4.260813331395779,4.260813331395779,3.0,-1.0
KI,mp-22901,221,-2.73857405,3.3572273466570497,-1.421368269,82.10766096114887,3.9111,4.346382,4.346382,3.0,-1.0
RbI,mp-22903,225,-2.758601095,3.3599680093693327,-1.50632775125,104.95708590502804,3.9541,5.294710925721252,5.294710925721252,3.0,-1.0
BiCl3,mp-22908,62,-3.290307125625,4.1803922746748015,-1.3774103155700002,501.03756636469046,3.426,6.788164999999999,8.815092,1.0,1.0
ZnCl2,mp-22909,122,-2.799812488333333,2.75530503283632,-1.5439973005066667,164.3058609961359,4.0569999999999995,6.517489236069976,6.517489236069976,3.0,-1.0
NaBr,mp-22916,225,-3.05739401,3.120798709320274,-1.5816046316666663,54.748524180331046,4.0895,4.262154005852908,4.262154005852908,3.0,-1.0
Na4I2O,mp-22937,139,-3.171747408571429,3.3637296681764437,-1.3785617563690482,178.59013309960991,2.2141,8.719286246205879,8.719286246205879,3.0,-1.0
LiIO3,mp-22955,173,-4.620043661,4.300779518180781,-1.386057283416666,140.42036648121228,3.7485,5.282965,5.540014120099154,3.0,-1.0
KBrO3,mp-22958,160,-4.15487262,3.0090501228091187,-1.0580082413499994,92.15893490429727,4.0763,4.5417461350385935,4.541746694825791,3.0,-1.0
Li2ZnCl4,mp-22961,227,-3.3020050892857142,2.589145735510303,-1.860148910672381,283.60718688559797,4.3019,7.3746952210662915,7.3746952210662915,3.0,-1.0
NaClO4,mp-22968,63,-4.376650695833333,2.392958525877309,-1.118123184432222,169.92941107813826,5.492800000000001,4.874251477581045,7.1792039999999995,3.0,-1.0
MoCl4O,mp-22974,2,-4.08730715,2.319342857948678,-1.3246884157149996,363.347843515568,1.7407,6.642360000000001,7.789441289068684,0.0,1.0
Rb2TeCl6,mp-22975,225,-3.0717453644444443,2.9185609078072337,-1.6686925938400003,290.8819115163595,2.7216,7.437219016872366,7.437219016872366,3.0,-1.0
TlIO3,mp-22981,160,-4.304562808,6.533713544988087,-0.9800304077500002,96.39528367162657,3.0753000000000004,4.586399910677218,4.586400305797674,0.0,1.0
CsGeCl3,mp-22988,160,-3.5571282660000003,3.0822353931951283,-1.7011316345422067,168.0369800988856,2.8480000000000003,5.518273504887012,5.518273796057061,3.0,-1.0
NaIO3,mp-22989,62,-4.4482992885,4.157400851107635,-1.333167040916667,316.1668919384177,3.7882,5.805407,8.331553,3.0,-1.0
AgClO4,mp-22993,121,-4.0366163849999985,3.887752650708696,-0.5251049091544443,88.55012074337523,2.7665,5.001590332031802,5.001590332031802,2.0,1.0
LiIO3,mp-22994,33,-4.6242589445,3.9790446683333767,-1.3902725669166665,303.5487592808489,3.6474,5.407704,9.465213,3.0,-1.0
PbBrCl,mp-22997,62,-3.4282815516666667,6.130200109302025,-1.2271400227533336,349.4949529575999,3.4812,4.649264,9.473127999999999,2.0,1.0
RbClO3,mp-23011,160,-4.266660798,2.932751092377686,-1.272384506902,95.64282469113216,5.4277,4.597086451235174,4.597086472117964,3.0,-1.0
KClO3,mp-23022,11,-4.301285862,2.1996502611646016,-1.281036596002,185.02780731565468,5.4781,4.751183999999999,7.236104032734881,3.0,-1.0
K2SeBr6,mp-23036,225,-2.6218196,3.4354500984931917,-0.8953453098159723,307.69387563024236,1.8314,7.577825786097749,7.577825786097749,3.0,-1.0
RbPb2Br5,mp-23043,140,-3.22485204125,5.293573806089087,-1.1510444271875002,564.2572041615899,3.0853,9.78464930045482,9.78464930045482,3.0,-1.0
CsLiBr2,mp-23057,129,-3.19239374125,3.5902532265331963,-1.6728491615660919,277.1882051010865,4.1846,5.229907,10.134138,3.0,-1.0
Fe(IO3)3,mp-23069,173,-4.6214060726923085,4.697828185386311,-0.8890960770192305,410.4155857960337,2.0837,5.423669,9.347597712163807,3.0,-1.0
SbCl5,mp-23176,194,-2.8758281933333336,2.1188077119249784,-1.1427855060500005,468.7001010950128,1.8399,8.010246410008747,8.434759,0.0,1.0
BCl3,mp-23184,176,-4.0293755225,1.3986720863057134,-1.4191393472366665,278.2144068484613,4.750299999999998,6.477790259477841,7.655882000000001,0.0,1.0
MgI2,mp-23205,164,-2.610585303333333,3.892507476334497,-1.06115021,118.6430765114252,3.6766,4.2094978223090935,7.7312759999999985,2.0,1.0
AsI3,mp-23218,148,-2.5048502675,4.243515720191168,-0.19706120500000024,356.5909892194753,2.2513,8.611842606090871,8.6118431730705,2.0,1.0
BBr3,mp-23225,176,-3.42454134625,2.3783031898137827,-0.5269984985416665,349.83195613037384,3.867,7.000120216905137,8.243618,0.0,1.0
PCl3,mp-23230,62,-3.44065958,1.5444092437969936,-1.1469498820878572,590.6372740023712,4.0767,6.523152,10.074485000000001,0.0,1.0
KBr,mp-23251,225,-3.135308555,2.624472422104685,-1.7616458115,75.29435878270051,4.5151,4.739790494408799,4.739790494408799,3.0,-1.0
LiBr,mp-23259,225,-3.316326475,3.4418250082704427,-1.5434017716666666,41.89914213893864,5.09,3.8985823263837838,3.8985823263837838,3.0,-1.0
I2O5,mp-23261,14,-4.235437816071428,4.7173698078335216,-0.767387448392857,470.0058096888527,2.7472000000000003,5.221328,11.138025987206037,3.0,-1.0
NaI,mp-23268,225,-2.69340911,3.5723689080929475,-1.2740766941666668,69.67512219100641,3.5692000000000004,4.618818666283403,4.618818666283403,3.0,-1.0
AsCl3,mp-23280,19,-3.268222243125,2.0685869488722526,-1.1630544093200001,582.0853089705496,4.1006,4.652758,12.232531,0.0,1.0
SbI3,mp-23281,148,-2.53445412625,4.293227467180736,-0.3591943550000001,388.6943953522384,2.2114,8.825923668139954,8.825923750135676,2.0,1.0
AlBr3,mp-23288,14,-3.281621175625,2.650775665089814,-1.1175323131250003,668.2648335540538,4.0992,7.582053,11.256773146109724,0.0,1.0
PbCl2,mp-23291,62,-3.615556421666666,5.534996863166032,-1.5421067471733332,333.7352407399238,3.8334,4.5792410000000014,9.355741,3.0,-1.0
HgBr2,mp-23292,36,-1.6672889183333333,5.199394404680032,-0.47477777,230.20179349573127,2.8404,4.308542546602621,13.087909,0.0,1.0
BrF3,mp-23297,36,-2.73877277625,3.2159328199565884,-1.2641285408924998,141.37514584681557,2.3409999999999997,4.8702982587344685,6.228833,1.0,1.0
RbI,mp-23302,221,-2.709002995,3.9023060550311066,-1.45672965125,90.37026979031045,3.9656,4.4875419999999995,4.4875419999999995,3.0,-1.0
RbBr,mp-23303,221,-3.01512833,3.701679718194832,-1.70639802375,74.18425021057112,4.5276,4.201818,4.201818,3.0,-1.0
IO3,mp-23315,2,-4.186065240625,4.8561686091671605,-0.6208129853125,239.22786852119404,1.9146,5.333289,6.905297656957664,2.0,1.0
NaClO3,mp-23330,198,-4.2736380545,2.361654107425448,-1.212538134568667,299.3654104053254,5.6597,6.6896059999999995,6.6896059999999995,3.0,-1.0
NaBrO3,mp-23339,198,-4.151346337,3.159524368250208,-1.0136313044166665,317.21484707448184,4.5138,6.8200020000000015,6.8200020000000015,3.0,-1.0
Zn(IO3)2,mp-23360,4,-4.3763828627777785,4.913048779772887,-1.0672982347222222,280.67282190282145,3.2192,5.3390900000000014,9.469238485969717,3.0,-1.0
Rb2TeBr6,mp-23383,225,-2.715837082222221,3.7826928261228,-1.0574006027777776,341.5112903472568,2.158,7.845850368865824,7.845850368865824,3.0,-1.0
LiIO3,mp-23384,86,-4.6290755685,3.893147942156132,-1.3950891909166665,620.4922546697478,3.7256,6.227307,9.982011,3.0,-1.0
MoNCl3,mp-23396,2,-5.600599402,2.58251343189597,-1.0886657724320004,556.332541379368,1.6837,8.068273,9.460528993471348,1.0,1.0
Na2O2,mp-2340,189,-4.210404948333333,2.5240027825531435,-1.312211105625,153.90562770670968,1.7724000000000002,4.5069370000000015,6.279443977793576,3.0,-1.0
In(IO3)3,mp-23400,173,-4.553043772307691,4.783841729010192,-1.0503737112499996,443.9770309589855,3.4261000000000004,5.423184,9.722719554964241,3.0,-1.0
TlBrO4,mp-23404,62,-3.9980414420833337,4.974698536701701,-0.5011678762499999,465.02571240453307,3.0301,6.271966,9.392517999999999,0.0,1.0
Cs2TeBr6,mp-23405,225,-2.740793403333333,4.062434808402151,-1.1012750795402295,356.7753145119456,2.2091,7.961042306161801,7.961042306161801,3.0,-1.0
Hg(IO3)2,mp-23407,4,-4.018165538333333,6.0818930367162585,-0.8153101597222224,300.54884511354436,2.714,5.624135,9.164218276508095,3.0,-1.0
CsCu2I3,mp-23431,63,-2.8984279241666666,4.817214035790968,-0.6207856646551727,441.718141928155,1.8996000000000004,6.083589,8.68275688536262,3.0,-1.0
RbIO4,mp-23450,88,-4.4280913575000005,3.7508063716113846,-1.18022326375,244.70629539269194,2.5318,7.9325220814906645,7.9325220814906645,3.0,-1.0
CsAgBr2,mp-23454,63,-2.83199321375,4.637018262588144,-1.0815403498994254,286.9005229976568,2.1094,6.044446,10.436406506151434,3.0,-1.0
Cs2TeCl6,mp-23465,225,-3.092431198888889,3.1467286800259937,-1.7082965839357855,319.8562146600509,2.8487,7.676382329259533,7.676382329259533,3.0,-1.0
KIO3,mp-23487,1,-4.4542727595,3.822784606421816,-1.37999116585,371.83049275477134,2.9493,7.788233,7.791546404527472,3.0,-1.0
K2ZnBr4,mp-23495,11,-2.85582057,3.1011555798408668,-1.4232137608571431,496.07157299243215,3.6576,7.363811,9.326372924417402,3.0,-1.0
K2TeBr6,mp-23505,225,-2.705779271111111,3.4824469811125587,-1.0184839306666669,326.73450068594593,2.0783,7.731017641814692,7.731017641814692,3.0,-1.0
InSn2Br5,mp-23507,140,-3.117511980625,4.728202031748942,-0.7480794631249998,528.0330744104576,2.3079,9.517207227506502,9.517207227506502,2.0,1.0
Na2O,mp-2352,225,-3.740514093333333,2.3503495610316287,-1.448857459305555,43.78857106689593,2.0422,3.956324666135477,3.956324666135477,3.0,-1.0
KClO4,mp-23526,62,-4.4204923875,2.374710429539539,-1.1960070877099995,387.5265939335045,5.5614,5.790133999999999,9.022326,3.0,-1.0
K2ZnBr4,mp-23535,4,-2.8567878278571435,3.075016324714728,-1.4241810187142858,500.28844212026604,3.677,7.418744999999999,9.281280897834359,3.0,-1.0
KSn2Cl5,mp-23539,140,-3.550780248125,3.1936839991833024,-1.6259305555375003,471.88444292757913,3.0363,9.20058966627183,9.20058966627183,3.0,-1.0
KSn2Br5,mp-23541,140,-3.198013000625,4.151288825389888,-1.0337410809999998,540.8383058301984,2.4079,9.620166359937182,9.620166359937182,3.0,-1.0
In(IO3)3,mp-23559,148,-4.548020459230768,5.032243907188583,-1.0453503981730763,422.06138784124136,3.1911,7.576574315915736,7.576574616013229,2.0,1.0
KIO4,mp-23562,88,-4.449798566666667,3.4494242310412795,-1.1802863271666666,221.4425214970806,2.4329,7.669305481540487,7.669305481540487,3.0,-1.0
Tl(BH)6,mp-23691,202,-5.05326885,2.8632367398873457,-0.2935439597476921,319.3178666765937,4.6348,7.672073220534981,7.672073220534981,0.0,1.0
K3AlH6,mp-23697,139,-2.895761536,1.5769500116821324,-0.2442422720719996,158.2922751620265,1.9303000000000003,6.203445641200703,6.203445641200703,3.0,-1.0
LiH,mp-23703,225,-3.05685464,0.824862688740225,-0.4825248759766665,16.002088090829318,3.1751,2.828550161326117,2.828550161326117,3.0,-1.0
NaAlH4,mp-23704,88,-3.237472780833333,1.3018057851158693,-0.23427699880222205,137.76894365699877,4.6748,6.571004493326572,6.571004493326572,3.0,-1.0
Na3AlH6,mp-23705,14,-2.97723901,1.4827909412036933,-0.2644437651719997,228.45091207557275,2.8147,5.345828,9.3835246963146,3.0,-1.0
Mg(AlH4)2,mp-23709,164,-3.3122676190909086,1.0004949814333963,-0.12960170990545414,143.28606589029502,4.4283,5.232728537720259,6.042504,2.0,1.0
MgH2,mp-23710,136,-2.970289635,1.4238704155013329,-0.2770385107466661,61.39161124701334,3.8997,3.015723,4.511893,3.0,-1.0
MgH2,mp-23711,60,-2.969632288333333,1.4501029108274608,-0.27638116408,120.56206268105623,3.635,4.511433,5.4282449999999995,3.0,-1.0
MgH2,mp-23712,62,-2.8886446741666667,1.766552209937667,-0.1953935499133331,98.96531619370096,2.0231000000000003,3.1133290000000002,5.996795,3.0,-1.0
CaH2,mp-23713,62,-3.48503065,1.9590763635723567,-0.6566729157466664,142.7173202729333,3.1860000000000004,3.571681,6.770971,3.0,-1.0
SrH2,mp-23714,62,-3.3582729841666663,3.3177810942076125,-0.6352881254688884,179.44991098892018,3.2355,3.861192,7.301653,3.0,-1.0
BaH2,mp-23715,62,-3.388515340833333,4.1063383766101245,-0.5890339565799998,225.39233221551387,2.8731,4.174695,7.88258,3.0,-1.0
BeAlH5,mp-23719,4,-3.5013077371428567,1.0608739699381913,-0.11792602258571452,128.45559392224328,3.4607,4.306234,6.253913862480839,3.0,-1.0
BeAlH5,mp-23720,15,-3.4996942285714288,1.1252490419622152,-0.116312514014286,121.10669798698166,3.7956,4.662860562677164,6.307023251635037,3.0,-1.0
NaMgH3,mp-23730,62,-2.8211123280000003,1.498808579036392,-0.29428387783866616,222.99307448415985,3.3726000000000003,5.3620160000000014,7.6419229999999985,3.0,-1.0
LiMgH3,mp-23736,161,-2.9961397460000003,1.2044742848392729,-0.35045716583866665,94.4916394341182,4.043,5.281004022862793,5.281004264107443,3.0,-1.0
KMgH3,mp-23737,221,-2.827690748,1.6934061485403034,-0.3417129517719996,65.13784536379987,2.844,4.0235660000000015,4.0235660000000015,3.0,-1.0
SiH4,mp-23739,14,-3.7867751745,0.7373883725024172,-0.10992304139599936,289.30190347949747,6.5933,5.059625,7.693490565979787,0.0,1.0
CsMgH3,mp-23751,166,-2.754334418,3.1549757192734207,-0.311355936758207,253.00537180625219,2.7741,8.29009279159166,8.290093020533003,3.0,-1.0
Cs2MgH4,mp-23752,139,-2.6281344385714287,3.4900437847820562,-0.29241566147743825,139.9534553746364,3.0540000000000003,8.0859978058662,8.0859978058662,3.0,-1.0
KNa(BH4)2,mp-23758,166,-3.931725535833333,1.1904297441105065,-0.4565815361355554,128.0156439600827,6.402100000000001,7.476858920666888,7.4768592372843266,3.0,-1.0
K2LiAlH6,mp-23774,166,-3.09233158,1.5749602973857366,-0.3609599241053335,249.17523643647098,2.6679000000000004,9.676007725777866,9.67600777372719,3.0,-1.0
Mg2FeH6,mp-23804,225,-3.8444841044444438,2.7767774317396268,-0.38793044352444395,66.08161986086097,1.9505,4.53800767490228,4.53800767490228,3.0,-1.0
BaLiH3,mp-23818,221,-3.3070775119999998,3.768358059314554,-0.5976567758386665,64.90461295100596,2.5084,4.018758,4.018758,3.0,-1.0
Sr7(H6Cl)2,mp-23827,174,-3.5093775342857145,3.3782972450103994,-0.9755246455536506,342.2735820046794,3.8999,3.9535730000000004,9.998307373983858,3.0,-1.0
Sr7(H6Br)2,mp-23828,174,-3.440438523809524,3.685011612051066,-0.8701022481003168,353.8461422918992,3.7421,4.022488,10.078468589565384,3.0,-1.0
CaHCl,mp-23859,129,-3.9085574216666665,2.490166513287795,-1.7421615822933332,102.07823397186979,3.8401,3.836734,6.934414,3.0,-1.0
SrHCl,mp-23860,129,-3.865272656666667,3.4364753726144737,-1.8042496928488887,119.91428772189585,4.0417,4.127924,7.037324000000001,3.0,-1.0
BaHCl,mp-23861,129,-3.957702978333333,4.010975195912121,-1.82018348896,143.89601011148187,3.6646,4.43532,7.314739,3.0,-1.0
BaHI,mp-23862,129,-3.492769818333333,4.916341024261683,-1.2651964495399997,179.17406466858267,3.0321,4.752471,7.932977,3.0,-1.0
NaH,mp-23870,225,-2.542705705,1.417181214937649,-0.2655112659766665,28.11858733965972,4.0702,3.41326100132996,3.41326100132996,3.0,-1.0
H2,mp-23907,194,-1.11741023,0.03997628985771613,4.440892098500626e-16,83.73582204581426,7.4955,3.9003982140208455,6.355691,0.0,1.0
NaGaH4,mp-23918,63,-3.0815384333333333,1.9577506943909144,-0.1979227058855552,164.11494150867622,4.9716000000000005,4.819487227559588,7.089347,3.0,-1.0
AlH3,mp-23933,167,-3.47852939875,1.4595111664205531,-0.11233294521499992,68.27638089928168,2.1973,4.716127805722191,4.716128188129857,3.0,-1.0
RbCaH3,mp-23949,221,-3.006573578,2.274957492044173,-0.4655047906719997,93.84565537357794,3.5765,4.544346,4.544346,3.0,-1.0
K(BH)3,mp-23950,225,-4.7745357285714265,1.4049737308123693,-0.3648522651942849,176.23345783620834,5.135,6.293145700756657,6.293145700756657,0.0,1.0
Cs(BH)3,mp-23951,225,-4.752440598571427,2.4283122346744643,-0.3734709316130044,230.26044660929725,4.433,6.879836439747822,6.879836439747822,3.0,-1.0
K2MgH4,mp-23956,139,-2.72983338,1.5846926742491134,-0.3326870100685712,111.63224835376042,3.5537,7.4146536909648715,7.4146536909648715,3.0,-1.0
K3AlH6,mp-24034,14,-2.9455710405,1.5944316664615246,-0.29405177657199993,313.113456558375,2.8901,6.014865,10.410604256968805,3.0,-1.0
CaMgNiH4,mp-24052,198,-3.682907519285714,2.7803236145115107,-0.4907699113542857,303.65970962804926,1.9466,6.721441,6.721441,3.0,-1.0
KH,mp-24084,225,-2.440007265,1.4412285931854134,-0.26493946081,46.2091708763842,3.5362,4.02792205615774,4.02792205615774,3.0,-1.0
Rb(BH)6,mp-24123,202,-5.103632170384615,1.5995136223934658,-0.4501471960938457,324.6955659215831,5.6422,7.71490267827145,7.71490267827145,3.0,-1.0
Cs(BH)6,mp-24136,202,-5.106069908076923,1.8184364600921816,-0.4591335261270019,372.2423873988191,5.4805,8.074462233864123,8.074462233864123,3.0,-1.0
CaHI,mp-24204,129,-3.422202205,3.6490456594429537,-1.1657524862066666,152.8918323602096,3.7585,4.028581,9.420633,2.0,1.0
SrHI,mp-24205,129,-3.3766226333333336,4.157115097856535,-1.2255457900955555,172.18671049449006,3.7366,4.2813370000000015,9.393789,2.0,1.0
K(BH)6,mp-24239,202,-5.1075174215384616,1.1658624975815557,-0.4440428415169229,313.38022200971636,5.6387,7.624221890438527,7.624221890438527,3.0,-1.0