pretty_formula,task_id,spacegroup.number,final_energy_per_atom,density,formation_energy_per_atom,volume,band_gap,min_abc,max_abc,Dimension,Dim
Bi11PO20,mp-758223,1,-5.851784290625,8.03876032328771,-1.6918788954241073,547.3489495423702,0.0,8.8105,8.970810124187784,3.0,-1.0
Tl16O15F17,mp-758418,8,-4.212746738333333,9.136644618417082,-1.5956471136245831,696.6459796252524,0.0,9.663352611091296,9.674718972599566,3.0,-1.0
Ag2SnO3,mp-759209,182,-4.945930426666666,6.8735546235220815,-1.2106503820138892,369.56959471127135,0.0,5.754846146473249,12.885408,3.0,-1.0
Fe(Bi5O8)5,mp-759730,195,-5.753487162272728,8.834934643096869,-1.6199344443939394,1112.7349901093382,0.7234999999999996,10.362485000000001,10.362485000000001,3.0,-1.0
Cd3(Pt3O4)10,mp-759817,10,-5.720866623835616,12.049767705768875,-0.8616540302739722,941.1826099652848,0.0,5.715402,20.693568667868046,3.0,-1.0
Bi12Rh12O41,mp-760121,44,-6.215275466923077,8.779330931036135,-1.459515614942308,831.9606005359852,0.0,12.677715894200814,12.677715894200814,3.0,-1.0
Tl2(PbO3)3,mp-760447,119,-5.01447577,9.504835340226384,-1.1521731708035716,205.16637912138825,0.0,14.185910604280783,14.185910604280783,3.0,-1.0
Ta5Pb11O26,mp-761132,12,-7.287260087380951,9.241502902894954,-2.2749908467261912,646.8443682261399,0.0,7.679740200762849,13.465937928007836,3.0,-1.0
Sn2N2O,mp-762250,1,-6.2283167425000014,7.0089059601381924,-0.5943660317020004,533.4129596607231,0.3349000000000002,8.817081,8.86583690249285,3.0,-1.0
Sn2N2O,mp-762347,1,-6.22499584,6.987580839833541,-0.5910451292019999,535.0408614764674,0.6313999999999993,8.848093820710568,8.870249639126488,3.0,-1.0
Co(BiO3)2,mp-765403,150,-5.6515372040740735,8.248328653712633,-1.3750506232407391,345.99987041588656,0.0,5.014952,8.925637780909664,3.0,-1.0
Ca3Tl4O9,mp-765585,14,-5.29721409875,7.722833751095685,-1.9425640500781247,930.3878796565745,0.3713999999999995,6.756692,12.497990273736331,3.0,-1.0
Bi12Cl5O16,mp-766035,12,-5.3075478072727265,7.975691558069492,-1.6445079859484852,612.3204366922428,0.0,10.061099383715481,15.500298385889995,3.0,-1.0
W5O12F,mp-766126,51,-7.3759786713888875,8.310390349635588,-2.075747109788333,451.6578804805609,0.0,3.874693,18.171498,3.0,-1.0
Bi12O16F5,mp-766268,5,-5.5401135366666665,8.866175832633363,-1.8518162673015148,535.4125074115582,0.0,10.440989582712646,13.847489987179625,3.0,-1.0
Bi8Rh8O27,mp-766286,160,-6.207357894186046,8.783510032017457,-1.4476438221802337,553.3682694611247,0.0,12.666692039446845,12.666692371552491,3.0,-1.0
Bi25O38,mp-766354,1,-5.707412993809522,8.557870996303308,-1.6028710007539682,1131.7152192675085,0.4415000000000005,8.990944,14.713819200530196,3.0,-1.0
Cr11Ni40Mo9,mp-766580,1,-7.287407281499997,9.052394506937262,-0.03741100416666635,693.9681553499084,0.0,6.243191,12.584455969905136,3.0,-1.0
Cr8Ni50Mo17,mp-766895,1,-7.3972073658666675,9.24748478696915,-0.0557787622666668,894.5321698680193,0.0,9.262604,11.196867188253773,3.0,-1.0
Cr8Ni50Mo15W2,mp-767372,1,-7.453188596933334,9.599232905578397,-0.05542710159999994,892.1645598619078,0.0,6.300612,13.353399721421473,3.0,-1.0
Bi6P2O15,mp-767410,37,-6.204440894782608,7.325328072599115,-1.9500165637344715,705.3612887590581,0.0,5.870984,11.577516068232427,3.0,-1.0
Cr22Ni50Mo3,mp-767825,1,-7.143315848666665,8.655765887079287,-0.02450508293333314,837.6595265231789,0.0,6.150318328267164,11.965477987246896,3.0,-1.0
In2Bi2O7,mp-768468,4,-5.5424980475000005,8.080823195749407,-1.63312583284091,624.3587597183122,0.3426,5.561025,14.016539081185055,3.0,-1.0
Cr7Ni20Mo3,mp-768498,1,-7.219353616166668,8.827542312135732,-0.028987116833332983,686.8459662976893,0.0,6.2031701040761416,18.9531455029922,3.0,-1.0
Cr7Ni20Mo3,mp-768654,1,-7.217006245333332,8.71569515471036,-0.02663974600000074,1043.490230289169,0.0,6.232654,15.274504168452802,3.0,-1.0
Li(BiO2)3,mp-768971,199,-5.492685957999999,7.700877210443735,-1.5873840970833335,629.5344782444481,0.0,9.351482606179779,9.351482606179779,3.0,-1.0
Li(Bi3O5)4,mp-769006,197,-5.6048203993939385,8.968508816569527,-1.5592857338888892,524.8497707949276,0.0,8.801410982508829,8.801410982508829,3.0,-1.0
Bi12BO20,mp-769060,197,-5.874332897575758,9.028939715617033,-1.684238568308081,522.0486825029628,0.0,8.785725530395485,8.785725530395485,3.0,-1.0
Y(Bi3O5)4,mp-769643,197,-5.940496547272727,8.714720421220873,-1.756854359141415,555.7522672176914,0.0,8.970866173267327,8.970866173267327,3.0,-1.0
Ag2Hg3,mp-770023,1,-1.2329062594,12.350975691893153,0.08232436093333334,1099.104514703687,0.0,8.932205999999997,14.604127628103946,3.0,-1.0
Co2HgO4,mp-770995,59,-5.111313733214286,7.8712159249951625,-1.1463169003571434,322.73529153499163,1.1432000000000002,4.903787,11.564964,3.0,-1.0
Tl3Co3O8,mp-772043,4,-5.23162085,8.623158053619207,-1.1778182732142852,353.5324299849932,0.0,5.580895058753033,11.331677876530952,3.0,-1.0
Bi3Ir3O11,mp-772189,201,-6.446725587647059,10.713471001718396,-1.4533306261029413,855.3178644535865,0.0,9.492396000000001,9.492396000000001,3.0,-1.0
Be(Bi3O5)4,mp-772198,197,-5.73356245939394,9.104256024554427,-1.6325584000000004,517.4018681668592,0.0,8.759580223455231,8.759580223455231,3.0,-1.0
Sn2N2O,mp-773817,1,-6.233232973250001,7.0162080915289256,-0.5992822624520002,532.8578091483452,0.006999999999999672,8.836539,8.847016495799078,3.0,-1.0
Sn2N2O,mp-773830,1,-6.2259310497500016,7.003674038624705,-0.5919803389520005,533.8114326227471,0.03830000000000045,8.799974,8.867962846270895,3.0,-1.0
Sn2N2O,mp-773831,1,-6.230251000499999,7.0116249310810215,-0.5963002897020004,533.2061125529411,0.06409999999999982,8.837305,8.851005525689269,3.0,-1.0
Ag3IrO4,mp-776370,91,-4.932005631875,8.456004964274847,-0.642160593749999,455.4455382807715,0.0,7.4216289999999985,8.268714,3.0,-1.0
Hf3N4,mp-776470,62,-10.695042433928572,11.51383004462733,-1.883405962431429,341.2256531013188,1.0064000000000002,3.243718,10.725242,3.0,-1.0
Sn2N2O,mp-776966,1,-6.22835550525,7.005734747029191,-0.5944047944520001,533.6544141592544,0.1029,8.804932,8.871214144762654,3.0,-1.0
Na(BiO2)2,mp-777268,62,-5.312459468214286,7.469335127614875,-1.5871190808333329,449.0285399553827,0.0,3.4712440000000004,12.336228,3.0,-1.0
Sn2N2O,mp-777302,1,-6.23066026875,6.988539831020721,-0.5967095579520005,534.9674413510415,0.7330999999999994,8.846966552329919,8.873758525995655,3.0,-1.0
Sn2N2O,mp-777314,1,-6.2354886385000015,7.021732150457723,-0.6015379277020003,532.4386051862268,0.11629999999999985,8.818914999999997,8.832306203594337,3.0,-1.0
Zr5Sn3O,mp-779662,193,-7.674251612777778,7.592854961682973,-1.11726448125,362.2722921822184,0.0,5.7938540000000005,8.497055693964823,3.0,-1.0
Na(Bi3O5)4,mp-780705,197,-5.581516104545455,8.705545560192338,-1.5539896405555549,543.7648189167031,0.0,8.905896947475421,8.905896947475421,3.0,-1.0
Ta2CS2,mp-7814,166,-9.178171218,8.080862535327947,-1.2005080792499996,90.01225441532014,0.0,9.807034844055972,9.807035409107687,2.0,1.0
Cu5Sn4,mp-845,14,-4.069002248888889,8.123755603609387,-0.009633274444444359,648.0221770484683,0.0,7.324598,10.033825147412626,3.0,-1.0
Sr(SbPd)2,mp-8468,129,-4.840794507,7.526679987587867,-0.7793450363333327,240.02615839618167,0.0,4.715026,10.796683999999999,3.0,-1.0
Sr(P3Pt2)2,mp-8507,15,-6.118660299090909,8.997026559476161,-0.8047669116450212,388.9893367693196,0.4463999999999997,5.803986279561403,11.555078920621964,3.0,-1.0
TaZn2,mp-862679,194,-4.88170333125,11.49852320217244,-0.08928171458333327,360.1849832508005,0.0,5.047505634749999,16.324554,3.0,-1.0
Te4Pt3,mp-8628,166,-4.777251347142856,10.554895618881927,-0.3792617971428568,172.3724246162795,0.0,12.361111308487521,12.361111518008563,2.0,1.0
Nb4Ni2C,mp-864841,227,-9.082390345357142,8.251183190495821,-0.3406368853571432,403.3207256550653,0.0,8.293194402915683,8.293194402915683,3.0,-1.0
Hg,mp-864900,217,-0.3021880379310345,10.770824684026657,0.001492327068965546,896.8244023166403,0.7033,10.522277938013232,10.522277938013232,3.0,-1.0
CuBiPtS3,mp-865018,19,-4.77872690125,7.639323041265893,-0.6988738528125005,490.2114428740798,0.5441000000000003,4.963252,12.693289,3.0,-1.0
YReB4,mp-865727,55,-8.18369041125,8.42182331798283,-0.5789295143055556,251.0829147488387,0.0,3.619293,11.584967,3.0,-1.0
Al(Ni3B2)4,mp-866315,64,-6.354844285714287,7.3143754499357865,-0.3290180877777781,1113.9484005119787,0.0,8.968854019163206,14.557723000000001,3.0,-1.0
Co2(SnTe)3,mp-866481,148,-4.72935256875,7.308990017444576,-0.26994582562500113,778.6268003218753,0.4145000000000003,9.199761578252831,9.199761854425851,3.0,-1.0
K3InAu5,mp-867331,74,-2.8227517522222225,8.250958875071305,-0.3280530554444445,489.8305717195028,0.0,11.237880002794032,11.237880002794032,3.0,-1.0
Tl3Os3O10,mp-867626,141,-6.58096866453125,10.428473365823713,-1.3794926034375,855.9215185933133,0.0,16.530843006326116,16.530843006326116,3.0,-1.0
Cd2PbO4,mp-867731,55,-4.609822827857143,8.361771220718454,-1.3896673328571427,197.00608922628123,0.0,3.365264,10.177537,3.0,-1.0
Rb2TlAu3,mp-867851,51,-2.6345553525,8.499877049223363,-0.27716106166666626,377.52163578552717,0.0,5.827308,9.292276,2.0,1.0
Zr2NiAs2,mp-8786,194,-7.4515512400000015,7.300473890847343,-1.01279629,177.8638517022676,0.0,3.949807075023412,13.164526,3.0,-1.0
TaFeTe3,mp-8848,11,-6.1322773029999995,7.4330858375539135,-0.1807406430000008,276.8320466391339,0.0,3.5379419999999997,10.389949360372505,2.0,1.0
Hg3(AsO4)2,mp-8975,14,-4.6522631688461535,7.099290019846841,-1.2526784261538462,822.9691179969742,0.9885,6.676883999999999,12.03453,3.0,-1.0
TaNiTe5,mp-8998,63,-5.060586936428571,7.3926609575749005,-0.2956699421428561,394.2714647038008,0.0,7.209320372694018,15.254979999999998,2.0,1.0
NbNiTe5,mp-8999,63,-4.850251457142859,6.732362939379902,-0.3362591185714286,389.5099814061814,0.0,7.124498421602253,15.270289000000002,2.0,1.0
K4Ge2Au7,mp-9201,166,-3.164280119230769,7.750659008026166,-0.3485245593846156,360.0255035768264,0.0,10.249873468790966,10.249873728597539,3.0,-1.0
CsAg5Te3,mp-9206,136,-3.0148918583333333,6.764513758912406,-0.2939935051404853,1035.9626207571464,0.019400000000000084,4.654545,14.918784,3.0,-1.0
TiTlCuTe3,mp-9344,11,-4.4293110916666665,6.900804584038706,-0.4649353488888893,336.20614344459364,0.008899999999999686,3.980349,10.574621078571326,3.0,-1.0
MnMoN2,mp-9374,194,-9.51534955125,7.825010894817412,-0.5372760823537934,75.92481009828845,0.0,2.8644885396761497,10.684617,3.0,-1.0
TaNi2Te3,mp-9391,11,-5.834539929999999,7.839498390909798,-0.3598809666666665,288.55181527113683,0.0,3.716157,10.533736387915258,2.0,1.0
HfTlCuSe3,mp-9397,63,-5.331125614166667,7.7870453231116175,-0.8468284586718747,291.4186664517938,0.4547000000000008,7.698997717032263,10.146544,3.0,-1.0
Ni5As2,mp-941,185,-5.700268345476191,8.77860391562891,-0.240422601190476,503.1327847552317,0.0,6.8127342483535935,12.517255,3.0,-1.0
Hf3Si3Ni2,mp-9605,63,-8.090301766875,9.967488586089804,-0.8768290206249993,245.59956514394509,0.0,5.290332058894224,12.905553,3.0,-1.0
Tl4SnS3,mp-9622,130,-3.5703143509375,7.124289083592192,-0.5859201789843755,962.5684442809004,0.6965999999999992,8.14444,14.511395000000002,2.0,1.0
Cs5Tl11Cd2,mp-966740,38,-1.913198893333333,6.985578206952318,-0.11870032886973153,745.8294834324803,0.0,5.895961,11.518420773944664,3.0,-1.0
Zr3As2,mp-972228,62,-8.046545312000001,6.853683620187534,-1.0542775720000008,410.44411961325363,0.0,3.7894699999999997,10.634634,3.0,-1.0
HfCr2,mp-973904,194,-9.854621757083333,10.483695792497377,-0.10019382708333187,357.9445554342048,0.0,5.034879146959637,16.304481,3.0,-1.0
Rb5Tl11Cd2,mp-974790,38,-1.92519454,6.910515728780532,-0.1070482809722222,696.9363797945829,0.0,5.862831,11.16101306469054,3.0,-1.0
Ge3Ir2Se3,mp-975924,148,-5.7253774878125,8.50423568316715,-0.4711676330664058,655.4761156384069,0.5962000000000005,8.686686800500464,8.686686924989584,3.0,-1.0
Hf4Co4Si7,mp-976184,139,-7.872263094,9.12024410093246,-0.7896481126666667,417.4145847583856,0.0,9.438055563781822,9.438055563781822,3.0,-1.0
K3TlAu5,mp-976190,74,-2.746848713888889,8.682898408477838,-0.29548676711111105,499.72083723762427,0.0,11.32900638958885,11.32900638958885,3.0,-1.0
Ge3Rh2Se3,mp-976401,148,-5.3885269553125,6.707826993653258,-0.5028477380664063,654.1435098809868,0.327,8.680774355319059,8.680774995653902,3.0,-1.0
MgPb3,mp-976828,187,-3.1936340425,8.98067559389207,-0.009078727499999495,119.42870829692758,0.0,3.5464098681604748,10.964788,3.0,-1.0
Sc6Al16Ir7,mp-978662,225,-6.38067844,7.171812454549012,-0.8705735831034478,473.9465173628155,0.0,8.751478793084058,8.751478793084058,3.0,-1.0
Si4MoPt3,mp-978785,62,-6.9848752965625,10.950111122282854,-0.6399225165624998,481.3445974968898,0.0,3.5208190000000004,24.577115,3.0,-1.0
Ti6Al16Pt7,mp-978976,225,-5.973382583103449,7.540646829244379,-0.8079163986206903,459.0302165085061,0.0,8.658687998616072,8.658687998616072,3.0,-1.0
ZrSb2,mp-979,58,-6.15250201375,7.423378721613102,-0.5506009770833332,599.0323384057795,0.0,3.929864,15.111716,3.0,-1.0
YB4Os,mp-980205,55,-7.971494655,8.671280067924169,-0.5695992138888878,246.9413193975179,0.0,3.570844,11.567744,3.0,-1.0
Y5(In2Pd)2,mp-980936,55,-5.585117615454545,6.7868543490909286,-0.7034036057575758,546.4170361193688,0.0,3.662293,18.369847,3.0,-1.0
Na6Cd16Au7,mp-982883,225,-1.7896302458620692,8.306914686173185,-0.2182054100000001,662.7193318853358,0.0,9.786217844479145,9.786217844479145,3.0,-1.0
Hf6Al16Rh7,mp-983480,225,-6.699576885172414,7.921043475501144,-0.7953526965517244,466.01818593522097,0.0,8.702404931931474,8.702404931931474,3.0,-1.0
Hf(TlTe)4,mp-984696,148,-4.0397884444444445,8.08066500122917,-0.4867879455555556,928.6888792143021,1.1624999999999996,9.874519713955966,9.874520300104962,1.0,1.0
Nb3CrSe6,mp-985289,182,-6.8314917385000005,6.617557526989063,-0.7382485929062497,403.73281491977235,0.0,6.053648906235972,12.721227,3.0,-1.0
CoSn3,mp-985707,142,-4.839513125625,8.145906384524958,-0.05525478562500119,676.8834483191839,0.0,17.620730513372934,17.620730513372934,3.0,-1.0
BaWN3,mp-989622,14,-8.5837334735,6.937790297852179,-0.8368307009280003,347.710923590104,1.4868000000000006,5.78805,10.441342570253742,3.0,-1.0
HfP,mp-9953,194,-8.9788599625,9.61707184084099,-1.2936226067857142,144.6688828343361,0.0,3.6654551231890697,12.433363,3.0,-1.0
HfAs,mp-9954,194,-8.30569607375,10.507385138519636,-0.9975424462499998,160.19203871645584,0.0,3.800690786429488,12.805168,3.0,-1.0
Nb3AlC2,mp-996161,194,-9.272657679166667,6.702489456778867,-0.5221489541666658,163.37702466121755,0.0,3.1305179004032224,19.249876999999998,3.0,-1.0
AgBiO2,mp-996965,194,-4.91867627375,7.638430183940319,-1.1151959610416666,151.67376595252594,0.8294999999999999,3.684839957667768,12.8986,3.0,-1.0
TlAuO2,mp-997008,194,-4.3113731075,10.473355833976052,-0.7796567431249994,137.41391121253062,0.0,3.5395659355922446,12.66485,3.0,-1.0
TlAgO2,mp-997010,194,-4.251120865,8.359365001647904,-0.8297358847916658,136.76662562911915,0.0,3.4904447149152786,12.962477999999999,3.0,-1.0
PbAuO2,mp-997015,194,-4.82701929375,9.520040619615589,-0.9575544068750004,152.15683706856916,0.0,3.7510445241937616,12.486952,3.0,-1.0
TlCuO2,mp-997029,194,-4.67562821625,7.8099984034064995,-0.9375805693749992,127.53967452896777,0.0,3.5370265457293364,11.77167,3.0,-1.0
NiAuO2,mp-997095,194,-4.58649457875,9.791344073646073,-0.7411572893749998,97.56957169143624,0.0,3.0441647137581107,12.159099242133891,3.0,-1.0
PdAuO2,mp-997099,194,-4.81728702875,9.855095386610836,-0.5810134568749996,113.02184012286486,0.0,3.2722203059048462,12.1884,3.0,-1.0
AgRhO2,mp-997106,194,-5.5561920025,7.551818652306676,-0.8841432997916661,106.76453953856873,0.4989000000000003,3.123179808962174,12.6387,3.0,-1.0
CoAuO2,mp-997158,194,-5.27634940125,10.496008608520741,-1.0264668331249989,91.09497344579958,0.5960999999999999,2.9230817667403697,12.310674,3.0,-1.0
CrAuO2,mp-997159,194,-6.4849416125,9.215993804221641,-1.6336266256250005,101.24735441339159,0.0,3.074832,12.365458,3.0,-1.0
Nb2AsC,mp-9989,194,-9.14145947375,7.756326936242727,-0.6193321775000005,116.7830678296688,0.0,3.34290505099756,12.067053999999999,3.0,-1.0
ZnBi4O9,mvc-10485,13,-5.39290398,8.31490821708876,-1.4621275465178567,417.51593320874986,1.0545999999999998,5.8236050000000015,11.312737252689288,3.0,-1.0
Zn3Bi2O7,mvc-14357,36,-4.9884639175,7.6430320852388975,-1.5485507732291677,315.54394221453447,0.0,5.559051,10.410714299113298,3.0,-1.0
ZnBiO3,mvc-3874,14,-5.0981224119999995,8.051848164377654,-1.5207675467500004,265.94500713801847,0.9005999999999998,5.590447,10.019024096211018,3.0,-1.0
Zn2CuIrO6,mvc-5710,14,-5.361182185,7.77403958982917,-1.26807047275,206.15758798209663,0.0,5.1300360000000005,9.23690254033732,3.0,-1.0
BiO2,mvc-5760,26,-5.5178115775000025,7.282167368683094,-1.3906898283333338,439.6003064240241,0.18589999999999973,3.447192,12.036412,3.0,-1.0
Zn2CoIrO6,mvc-5792,14,-5.563494251,7.978418435744548,-1.3568714262499997,198.9564445237274,0.0,5.133211,9.090762502065763,3.0,-1.0
MgBi2O5,mvc-7429,61,-5.66250005265625,7.579490601885652,-1.8364155509375009,915.3520498764366,0.4382999999999999,5.401431,16.139864000000006,3.0,-1.0
ZnBi2O5,mvc-7459,61,-5.30623054640625,7.908177751209805,-1.5227130996875005,946.3546315279176,0.2264,5.62707,16.412024,3.0,-1.0
CaBi3O7,mvc-9010,62,-5.720343330227273,7.164768084257465,-1.7753105037500003,722.1921635172996,0.0,5.7469550000000025,11.228767999999999,3.0,-1.0