pretty_formula,task_id,spacegroup.number,final_energy_per_atom,density,formation_energy_per_atom,volume,band_gap,min_abc,max_abc,Dimension,Dim
Sr2H5Rh,mp-35152,107,-4.01713913125,4.1850731429500785,-0.6493949208041667,112.36125907980184,0.7778,5.44716166331843,5.44716166331843,3.0,-1.0
Au(OF3)2,mp-3530,2,-3.3432381044444437,3.4467633726194453,-0.9653344066266664,165.22500179346437,0.0,5.509899,5.6319171476190935,0.0,1.0
Zn2GeSe4,mp-35539,121,-3.52747581,4.8143043642853165,-0.5094528120535716,179.11510177966434,1.3978000000000002,6.747053378407793,6.747053378407793,3.0,-1.0
Mg(BC)2,mp-3582,64,-6.82964892425,2.40781446299432,-0.14712392591666654,385.9169471113437,1.0453,7.228435743295503,7.4618990000000025,3.0,-1.0
Li2CuGe,mp-35841,216,-3.45477119,4.713982567391494,-0.3197511254166669,52.862685231443564,0.0,4.212643803247788,4.212643803247788,3.0,-1.0
ZnSiAs2,mp-3595,122,-4.19762225375,4.5307618104044165,-0.19679864374999934,178.36813063034234,0.8902000000000001,6.834336866971732,6.834336866971732,3.0,-1.0
Sc,mp-36,225,-6.28450785,3.0301599510943404,0.047961255000000584,24.63600910693561,0.0,3.2660922811751663,3.2660922811751663,3.0,-1.0
YAl4Ni,mp-3602,63,-5.095151836666667,4.084857502148243,-0.5569999844444448,207.74772010618102,0.0,6.6275770000000005,7.983305160097539,3.0,-1.0
LiMgP,mp-36111,216,-3.736252886666666,1.897717915884068,-0.7620899606349211,54.44346846850652,1.5647000000000002,4.254223096195121,4.254223096195121,3.0,-1.0
Sc2FeSi2,mp-3618,12,-7.172097752999999,4.124423953554498,-0.7749839270000003,162.59678644168199,0.0,5.326704804790388,9.406874899488406,3.0,-1.0
Sn(PS3)2,mp-36381,146,-4.672960352222223,2.7403623167805216,-0.7091733767658737,226.05039614913602,1.3748,7.800925538323897,7.800926140051898,2.0,1.0
MgB4,mp-365,62,-5.8023944235,2.5044155116652798,-0.13882499683333335,179.15198638133145,0.3650000000000002,4.39731,7.423806,3.0,-1.0
CdGeP2,mp-3668,122,-4.1850540625,4.428162639132527,-0.09193172803571414,185.24644730523534,0.6476999999999999,6.8541919966268825,6.8541919966268825,3.0,-1.0
SrAlSi,mp-3698,187,-4.01912459,3.1627167023207163,-0.3990008888888888,74.91578417975403,0.0,4.267565507814614,4.749876,3.0,-1.0
Sc(Al2Fe)4,mp-3701,139,-5.823767485384615,4.348807222934696,-0.42553000346153824,184.88137436530832,0.0,6.573733288791993,6.573733288791993,3.0,-1.0
KFeS2,mp-3827,15,-5.21341719,2.681376897659023,-1.0818217998125013,197.02372265055,0.0,5.371020296119259,6.647156401204128,3.0,-1.0
Mg(AlSi)2,mp-3833,164,-3.995537474,2.314534274494037,-0.007125524000000638,96.45194812120657,0.0,4.083376563606154,6.679463,3.0,-1.0
MgP4,mp-384,14,-4.95676689,2.4661414948542797,-0.3060821908571434,199.57652056013626,0.6672000000000002,5.118682,7.596687132096728,3.0,-1.0
Li5SiAs3,mp-38407,15,-3.7363607427777774,2.9324189588349494,-0.5199959018518522,325.66752306607134,0.0,7.3275769307490055,8.54600968761474,3.0,-1.0
Ca(AlGe)2,mp-3862,164,-4.1394022900000005,3.6174367148155646,-0.39084084000000063,109.85734637009571,0.0,4.2044965662853135,7.175803,3.0,-1.0
Cu3PS4,mp-3934,31,-4.550540595625,4.153629307407798,-0.600182428258929,279.74365842663656,1.3616,6.073991,7.268372,3.0,-1.0
ZrAl3,mp-395,139,-5.4330406875,4.086082425728737,-0.4869336574999998,139.9348729620197,0.0,9.121580340042287,9.121580340042287,3.0,-1.0
CdP2,mp-402,33,-4.037256975833333,4.0195707785757095,-0.12076981488095248,288.1194601571912,1.5290000000000001,5.247706,10.014610000000001,3.0,-1.0
Sc3AlC,mp-4079,221,-6.98855399,3.142635996148359,-0.5946012209999992,91.86596229891668,0.0,4.512164,4.512164,3.0,-1.0
Mg2Ge,mp-408,225,-2.8767082433333333,3.0358803533733467,-0.2688455916666665,66.32025586961251,0.25050000000000017,4.543463710825916,4.543463710825916,3.0,-1.0
NaS,mp-409,189,-3.5541598283333333,1.9893451512390472,-1.1603387865625,275.7307201371737,1.2040000000000002,5.390982,7.684990374270744,3.0,-1.0
Ga2CoS4,mp-4152,82,-4.7768828671428585,3.6842890438232,-0.9116731146428576,147.21894442283713,0.3847999999999998,6.452681069687003,6.452681069687003,3.0,-1.0
ZnSnP2,mp-4175,122,-4.2150563175,4.387934014149055,-0.19108452053571406,186.2393895472953,0.7058999999999997,6.999235251319461,6.999235251319461,3.0,-1.0
NaZnSb,mp-4247,129,-2.5406599983333336,4.6414066047837315,-0.3061943094444445,150.37546859968612,0.0,4.461334,7.555227,3.0,-1.0
BeAlB,mp-4262,216,-4.773851636666667,2.5435265622003507,-0.05239148138888853,30.556420448923067,0.0,3.5091814504114773,3.5091814504114773,3.0,-1.0
Na2PtC2,mp-4366,164,-5.487799718,4.683547977841436,-0.057045009333332786,93.9851365948884,1.0659,4.557034684238534,5.225934,3.0,-1.0
Y3AlC,mp-4448,221,-6.892788072,4.327411797665297,-0.4184340980000002,117.308698766826,0.07620000000000005,4.895271,4.895271,3.0,-1.0
MgAlSi,mp-4499,62,-3.6293616925,2.4503169092845942,-0.03897172583333308,215.15644836236999,0.0,3.973346,8.120398,3.0,-1.0
Ca,mp-45,225,-2.00559988,1.5936111734899183,0.0,41.76118103229138,0.0,3.8942986735033567,3.8942986735033567,3.0,-1.0
ZnGeP2,mp-4524,122,-4.38731656875,4.0438665315488285,-0.20998077178571428,164.24975389037243,1.2026,6.6740026531245125,6.6740026531245125,3.0,-1.0
NaGa4,mp-454,139,-2.830457786,4.845075151013981,-0.14505094066666652,103.46309515526464,0.0,6.41375790869682,6.41375790869682,3.0,-1.0
Ti,mp-46,194,-7.89105717,4.579441525890856,0.004434846666666381,34.713850172147204,0.0,2.933813606843148,4.6570089999999995,3.0,-1.0
Y(Al2Fe)4,mp-4656,139,-5.841110903076923,4.612205695317204,-0.4325655743589749,190.1463428094742,0.0,6.644816596021142,6.644816596021142,3.0,-1.0
CdSiP2,mp-4666,122,-4.490575115,3.8695810812588434,-0.19688123928571424,173.748115670623,1.4257,6.663087232593763,6.663087232593763,3.0,-1.0
ZnSiP2,mp-4763,122,-4.69133791375,3.333168040840155,-0.3134305755357145,154.87821212777138,1.3641000000000003,6.515882060744194,6.515882060744194,3.0,-1.0
C,mp-48,194,-9.2202971575,1.7417339509645842,0.0064835425000016045,45.803175751767064,0.0,2.4677242827325747,8.685038,2.0,1.0
Na2PdC2,mp-4823,164,-5.223734922,3.145073485277261,0.028814606666666975,93.14690483910655,0.0,4.5120984396248485,5.2830010000000005,3.0,-1.0
NaZnP,mp-4824,129,-3.0711473366666664,3.4546517373221883,-0.4085867739682539,114.75700981831487,0.9099,4.069751,6.928569,3.0,-1.0
NiP2,mp-486,15,-5.896273361666666,4.476788433855286,-0.3607038940476184,89.49673199553179,0.5831,4.288065680947063,5.634447075240657,3.0,-1.0
CaMgSn,mp-4864,62,-3.0914160116666665,3.707256324199338,-0.552932083333333,328.0410662045672,0.0,4.72007,8.818315,3.0,-1.0
MnP4,mp-487,2,-6.524203174,4.057132114851136,-0.36123319078817817,146.38879332540887,0.4511000000000003,5.109771,5.86552298981506,3.0,-1.0
SrSi2,mp-496,212,-4.542620959166666,3.377341469535308,-0.36258452805555547,282.7911540236804,0.05269999999999975,6.563799,6.563799,3.0,-1.0
ScCrC2,mp-4992,194,-8.9523852725,4.839726602830661,-0.34261577874999993,83.01339853718424,0.0,3.2584437568122917,9.028115,3.0,-1.0
K2CdPb,mp-504498,40,-1.8915569375,4.072717097793799,-0.17747325650000012,324.3903492085032,0.029499999999999863,6.658774,7.085196177796067,3.0,-1.0
N2O5,mp-504769,194,-6.034199144285713,2.0109923489308703,-0.7294460415728565,178.37510808476787,0.6851,5.5366898329616605,6.718978,0.0,1.0
Al3FeSi2,mp-505229,60,-5.34876356625,3.669294860036528,-0.2558704979166665,349.2972389227977,0.0,6.065562,9.483552,3.0,-1.0
FeS,mp-505531,129,-6.8096504925,4.1403373626812,-0.8381541190625006,70.51502163112309,0.0,3.5955550000000005,5.454435,2.0,1.0
Al13(CrSi)4,mp-505572,216,-5.372151322380953,3.4317514979497283,-0.18139266761904774,324.7219933957026,0.0,7.715111981878683,7.715111981878683,3.0,-1.0
NiPS,mp-505820,198,-5.4632311908333335,4.765128752604992,-0.574427054732143,169.6835667260188,0.0,5.536219,5.536219,3.0,-1.0
Sc3CoC4,mp-5075,71,-8.32572863,4.497399711009996,-0.4491226412499998,89.29403414036663,0.0,6.5994287500676165,6.5994287500676165,3.0,-1.0
NaLi2Sb,mp-5077,225,-2.89301682,3.281384250173962,-0.5776420225000001,80.2753441872444,0.9777,4.842084804015932,4.842084804015932,3.0,-1.0
Li,mp-51,225,-1.90603016,0.5718907451312455,0.002892706666666633,20.153852391203667,0.0,3.054623512979956,3.054623512979956,3.0,-1.0
Ca2InN,mp-510086,63,-4.45694659125,3.875289845324338,-0.7781076718450004,179.09401895917858,0.0,5.003007,10.337364087356116,3.0,-1.0
Cs3O,mp-510262,193,-2.664970715,2.7167970109746684,-0.9320025687607756,506.9585332231599,0.0,7.525606,8.819625854613617,1.0,1.0
Li13In3,mp-510430,227,-2.271768354375,2.471080343874379,-0.20482782583333314,584.2098554443835,0.0,9.383422951857598,9.383422951857598,3.0,-1.0
Na3AlP2,mp-5122,72,-3.6009447241666668,1.910728249898932,-0.5149273570238098,274.44657573044987,1.4948,8.048095078664579,8.048095078664579,3.0,-1.0
K2CoS2,mp-5131,72,-4.296537779,2.5987302037884934,-1.04151869445,257.20234570422326,0.0,7.7960438965751075,7.7960438965751075,3.0,-1.0
AlSiP3,mp-5168,62,-5.3870963465,2.7380967820209263,-0.3049468596428568,358.99446069631836,0.2885999999999997,5.89959,9.906489,3.0,-1.0
CdSnP2,mp-5213,122,-4.03305517375,4.634438610526408,-0.0932968392857143,210.01539741510257,0.6713999999999998,7.230447206394082,7.230447206394082,3.0,-1.0
Ca(SiNi)2,mp-5292,139,-5.5283823760000015,4.624874698209227,-0.64508212,76.70490879714113,0.0,5.586261346003962,5.586261346003962,3.0,-1.0
Al23B50,mp-530274,2,-5.805928115479452,3.0447233779646257,-0.05088931230593657,633.2575502973577,0.0,6.116707,10.376785084397863,3.0,-1.0
Mg(AlB14)2,mp-531611,1,-6.4191217927419375,2.5917662576756806,-0.09285078327956944,488.1811064227388,0.7351000000000001,7.1732460000000025,10.95402892286984,3.0,-1.0
RbFeS2,mp-5372,15,-5.1881913675,3.158692087391408,-1.089062195937501,216.00446381807618,0.0,5.44141432065341,6.898760519334035,3.0,-1.0
CaAg,mp-538,63,-2.756278695,4.468633665301672,-0.3372007533333328,109.95327129301927,0.0,4.7118709999999995,6.0408125996905415,3.0,-1.0
VS4,mp-541155,15,-5.6753620415,2.4322466278602928,-1.0801889339999995,489.3765099883814,0.9528000000000004,7.306090181142031,8.621207516219581,1.0,1.0
Na3MoN3,mp-541291,9,-6.074904185357143,3.1373505126559853,-0.5539018649485712,438.0949649847456,1.4285,6.4252198075785705,8.87876306561494,3.0,-1.0
NaSbS2,mp-5414,15,-4.10944019375,3.4936471621499305,-1.012031896145834,198.56213350313664,1.3776999999999997,5.882843999983766,6.908592233460662,3.0,-1.0
GePdS3,mp-541785,12,-4.792431533999999,3.8634438666035966,-0.7480556808749995,236.61359996867282,1.3728,7.757202508462055,9.397199990535745,1.0,1.0
GaN5O14,mp-541950,5,-6.103107209,2.1770920531580487,-0.9916185588450006,277.44253146087533,1.2568,7.324114859557023,9.170756568642524,0.0,1.0
Mg3Rh,mp-542429,185,-3.394214080416667,3.867123549044917,-0.3529270754166672,452.9829035815284,0.0,7.967433786112628,8.239754,3.0,-1.0
MgCo,mp-542488,227,-4.34992267625,4.533185585240166,0.004376246249999956,365.8891224241266,0.0,8.028261290994957,8.028261290994957,3.0,-1.0
Mg9Si5,mp-542854,176,-3.0748054775,2.174173631245408,-0.1084418667857138,548.6406047126492,0.0,7.178671725092323,12.293318,3.0,-1.0
TiAl3,mp-542915,139,-5.1805952575,3.365705500249346,-0.3975403808333339,63.55182301360691,0.0,5.087887114962654,5.087887114962654,3.0,-1.0
AgPS3,mp-5470,12,-4.291807008999999,3.1115290938506903,-0.5588447159226192,250.8657613179997,1.4351,6.598459904117777,7.682198074197254,3.0,-1.0
CaMgSi,mp-5473,62,-3.4467116491666663,2.22869916514818,-0.4363136658333329,275.58238290934725,0.015900000000000247,4.428212,8.321763,3.0,-1.0
Ca(CuSi)2,mp-5486,139,-4.61011503,4.5490749815107225,-0.399186778,81.52568537139125,0.0,5.7407406985417815,5.7407406985417815,3.0,-1.0
Al12Mo,mp-550,204,-4.411148043076923,3.1956663910784036,-0.1194131976923081,218.09501362929183,0.0,6.567839667455957,6.567839667455957,3.0,-1.0
CoO2,mp-550206,166,-5.738129491666666,2.1501727086303326,-1.1629132474999997,140.45023406288226,0.0,2.8203465048325183,10.223085537890848,2.0,1.0
BaAl2,mp-551,227,-3.3355565850000004,4.0796865099965665,-0.1988490883333339,155.72012480135257,0.0,6.038836161116477,6.038836161116477,3.0,-1.0
Ag3AsS3,mp-555843,161,-3.7312144392857145,4.820572054822076,-0.3632492941964287,340.83252789613283,1.6718000000000002,7.325183010305271,7.325183012830465,3.0,-1.0
LiAsS2,mp-555874,9,-4.3177398225,3.0016816958518864,-0.9392345711458336,161.52706402515855,1.3757000000000006,5.390289420089612,6.590148320714032,3.0,-1.0
RbPS3,mp-556953,71,-4.439262596,2.2911278338013616,-1.076704689089285,308.2248951623758,0.0015999999999999348,7.470575611285852,7.470575611285852,3.0,-1.0
CuClF10,mp-557055,14,-2.724662604166667,2.604916345485472,-1.0947826887633336,368.4322646692028,0.0,5.1483870000000005,9.312312,0.0,1.0
Cu4Si2NiS7,mp-557274,5,-4.8492059871428586,4.00638067616063,-0.7535973822767862,245.99149744411682,0.0,6.343711160215053,8.171177016588798,3.0,-1.0
LiNi(PS3)2,mp-557500,5,-4.7214470980000005,2.6379844631762714,-0.7860900509226199,201.41357442925263,0.0,5.895839254841674,6.963700414548647,2.0,1.0
Cu3TeS3Cl,mp-557510,160,-3.9263901325,4.583606581678579,-0.5371724428293754,162.98372585084005,0.8727,5.481779989773121,5.481780039906472,3.0,-1.0
GaN5O14,mp-557954,82,-6.1010781845,2.130951289389539,-0.9895895343450009,283.4499002671048,1.1667999999999998,7.420060479046246,7.420060479046246,0.0,1.0
MoS2N2Cl5,mp-558183,2,-4.8266745985,2.208546591148091,-0.8300923962310002,549.3887188537228,0.5425,7.347696000000001,10.20051715184132,0.0,1.0
K(NiS)2,mp-558518,139,-4.7886631180000006,4.018926765798113,-0.8653327098500008,91.15368693689408,0.0,6.817177813328548,6.817177813328548,3.0,-1.0
Sr(MnP)2,mp-5589,164,-6.796447774000001,4.70565654039031,-0.6285545906239747,91.55284771190651,0.0,3.851726377225932,7.1257470000000005,3.0,-1.0
YMgGa,mp-5590,189,-4.213337434444443,4.447065762709482,-0.5150552125000003,204.92308011887783,0.0,4.441733999999999,7.298840122838764,3.0,-1.0
NaPPdS4,mp-559446,140,-4.632124617857143,2.7709767598046176,-0.9464418527721098,345.9457812599012,1.3881,8.159620695286637,8.159620695286637,3.0,-1.0
Ba,mp-56,194,-1.903002395,3.5712595966393925,0.015968435000000003,127.70667728191151,0.0,4.47855713369574,7.352019999999999,3.0,-1.0
Cr(B3H8)2,mp-567148,2,-4.536378038695653,1.0573964512931455,-0.12050044403999965,208.8466082267135,1.0282,4.475192024334262,8.989252938415182,1.0,1.0
NiMoP8,mp-5673,163,-6.26898783,4.501170075135781,-0.2757811698571423,296.9183235786045,0.0,6.251500163021992,8.772793,3.0,-1.0
Li3Ga7,mp-567306,166,-2.906545295,4.5663253238056996,-0.2142015832500004,370.11018814726486,0.0,7.635918317084397,7.635919041145277,3.0,-1.0
Li,mp-567337,220,-1.89857061625,0.5710154463801983,0.010352250416666651,161.47796679526448,0.0,5.941713692824656,5.941713692824656,3.0,-1.0
Ba(AlSi)2,mp-567377,63,-4.300550653999999,3.403592833192572,-0.24840054800000005,241.46177659451496,0.0,5.846143961231197,10.222083999999999,3.0,-1.0
CaGe2,mp-567456,166,-4.226253373333333,4.1968635871558835,-0.4757015099999998,73.33910047703688,0.0,5.750198958973942,5.750199482766924,3.0,-1.0
Li17(AgSn2)3,mp-567528,157,-2.8602316707692315,3.98037440785932,-0.3599705987179488,481.36985818880316,0.0,8.072822058690628,8.528988,3.0,-1.0
CrBr2,mp-567624,12,-4.957866226666667,3.966491849639077,-0.6488993766666665,88.6700378693722,0.0,4.1683699850884155,6.5066707490332565,2.0,1.0
Na,mp-567772,220,-1.2971771575,1.035061912263127,0.017475059166666806,295.0579830579706,0.0,7.264009776745348,7.264009776745348,3.0,-1.0
Be3P2,mp-567841,206,-4.64118812325,2.232448293227687,-0.2322260596785717,529.504848961799,0.8887,8.827355371555402,8.827355371555402,3.0,-1.0
TaBe12,mp-567842,139,-4.5032130000000015,4.2770465082757205,-0.13931053769230808,112.23913190219021,0.0,5.574445052666677,5.574445052666677,3.0,-1.0
RbSb2,mp-568018,12,-3.3606121916666667,4.292221536784576,-0.2811000075000004,254.55214259235746,0.3129,7.408354977682968,8.724317406461665,3.0,-1.0
Ca3SiBr2,mp-568050,71,-3.6800974383333336,2.869856144655265,-1.227436315,178.2868985251012,0.35499999999999954,7.776196928488244,7.776196928488244,3.0,-1.0
K2Ga3,mp-568052,139,-2.407278162,3.303151910155556,-0.14626128170000002,288.92513464479254,0.2755000000000001,8.675960594964572,8.675960594964572,3.0,-1.0
ReNCl4,mp-568100,79,-5.10666515,3.571019159971616,-0.8712646034033332,159.04340223022663,1.1041999999999998,6.55375976080204,6.55375976080204,1.0,1.0
Pd(Se3Br)2,mp-568146,2,-3.4092720577777778,4.431126794174856,-0.13936052934027762,277.3062112396669,1.1012,4.845219,8.19998800061494,1.0,1.0
CaAlSiH,mp-568177,156,-4.032330645,2.2859077749437424,-0.428274047155,69.8478648549954,0.4074,4.143280229503672,4.698226,3.0,-1.0
C,mp-568286,67,-9.2204766625,1.8843504024722024,0.006304037500001414,42.336577190837694,0.0411999999999999,2.467763697440458,8.028328,2.0,1.0
Ca3N2,mp-568293,60,-5.294682036999999,2.7757642256337256,-0.9103332339519994,354.74280841078917,1.3102999999999998,6.213581,8.973813,3.0,-1.0
Sr3Li3(NiN)4,mp-568322,71,-5.312014710714286,3.967801457384348,-0.6173255799657146,240.42335259437561,0.0,9.336442203786088,9.336442203786088,3.0,-1.0
FeP4,mp-568328,20,-6.382054178,4.205289443060007,-0.35742491285714306,141.94759983958622,0.9030000000000004,5.534548,5.6997225655504495,3.0,-1.0
C,mp-568363,67,-9.22041158,1.8556039302537173,0.00636912000000045,42.99244303602145,0.06050000000000023,2.4687096661474794,8.149903,2.0,1.0
Li9Al4,mp-568404,12,-2.61885411,1.3074335257642289,-0.1448072546153845,216.41468194350347,0.0,5.368438911015472,9.608700959243398,3.0,-1.0
K3Bi,mp-568516,225,-2.148174105,3.262741329140208,-0.34286631724999994,166.05450063655746,0.12860000000000005,6.169574548103622,6.169574548103622,3.0,-1.0
WSe6ICl6,mp-568572,2,-3.728519597142857,3.7049656564492817,-0.6584686106158932,446.94796742416565,0.0,6.9049580000000015,8.426191542324979,1.0,1.0
Al5Mo,mp-568607,182,-5.1714991325,4.1228766771558485,-0.2425787691666669,185.9534701995613,0.0,4.918533159325147,8.875698,3.0,-1.0
Mg8BRh4,mp-568621,227,-4.20002503,4.468461509078224,-0.4354970568589739,458.47623999878573,0.0,8.655203376398385,8.655203376398385,3.0,-1.0
RbC8,mp-568643,70,-8.352932241666666,2.4484623556758898,-0.042401166944442376,246.2578300827785,0.0,4.975341205653537,12.271870916332562,3.0,-1.0
C,mp-568806,191,-9.21672921,1.9756430064485893,0.010051490000000385,20.190121901693487,0.0,2.4671920450214246,3.830032,2.0,1.0
Be12W,mp-568827,139,-4.552657339230769,4.444905200504028,-0.10411265846153893,109.08094628980524,0.0,5.5134106295688685,5.5134106295688685,3.0,-1.0
Na6ZnSn2,mp-568866,12,-2.0723759455555557,2.8183776156862432,-0.1649536544444443,259.69261218055846,0.0,5.762962707994301,9.412093853197172,3.0,-1.0
Be12Nb,mp-568912,139,-4.375998730769231,2.957777323731848,-0.14720954461538474,112.87382396348512,0.0,5.588288974141638,5.588288974141638,3.0,-1.0
Sr2LiCoN2,mp-569001,136,-5.369502584166668,4.10702732009549,-0.6526446602377772,217.6254748591311,0.2622,5.429606,7.381983999999999,3.0,-1.0
PdI2,mp-569017,58,-2.977297821666667,4.80363486547821,-0.2346621416666667,249.05066456601227,0.9689,3.9003400000000004,9.008436,1.0,1.0
Li3CaMnN3,mp-569112,148,-5.901345694375,2.9464341029554246,-0.807409255224397,177.9311996352763,0.09010000000000007,7.040663953577815,7.040664076522965,3.0,-1.0
Mg3In,mp-569125,221,-1.9704547,3.4279926902346705,-0.08232372999999993,90.9389280432442,0.0,4.496935,4.496935,3.0,-1.0
SiB3,mp-569128,74,-6.4060897671875,2.449973602158678,-0.040217434062498995,328.14503279051553,1.4934000000000005,8.174981880029094,8.174981880029094,3.0,-1.0
Li2MgSi,mp-569174,225,-2.9318286075,1.7159908177251926,-0.22096865666666687,513.0473853566838,0.0,8.985815394582842,8.985815394582842,3.0,-1.0
Be(BC)2,mp-569299,59,-7.206837247999999,2.3169416263565314,-0.09648568666666506,156.68539610379278,0.2919999999999998,4.701496,6.133033999999999,3.0,-1.0
Be22Re,mp-569364,227,-4.182400904782608,3.359981469520108,-0.06450480847826094,380.0233840958512,0.0,8.130334983286359,8.130334983286359,3.0,-1.0
Li8Zn2Ge3,mp-569373,161,-2.786231475,3.3406274185482285,-0.3508504197435896,401.900243391913,0.0,9.210394355027642,9.210394622484317,3.0,-1.0