pretty_formula,task_id,spacegroup.number,final_energy_per_atom,density,formation_energy_per_atom,volume,band_gap,min_abc,max_abc,Dimension,Dim
Cs2Se,mp-1011696,62,-2.7904239700000004,4.069971077533028,-1.0281852294019398,562.6630203317403,1.8027,5.624158,10.998913,3.0,-1.0
Cs2Se,mp-1011709,14,-2.79025641,4.073134104036877,-1.0280176694019396,562.2260796367897,1.8141000000000005,5.6301879999999995,12.173633124054627,3.0,-1.0
Ca4SiN4,mp-1019576,14,-6.262462076666668,2.9785513697395327,-1.2338395999466667,545.0650985574257,1.4465000000000003,5.992997,11.032917855110725,3.0,-1.0
CaMg3SiN4,mp-1019579,88,-6.037365041388887,2.938699474492668,-1.1438491746688884,891.0092473893886,2.4058,10.56176327278864,10.56176327278864,3.0,-1.0
Cs3BO3,mp-1019608,55,-5.300172176428573,4.584931176103855,-2.142658563101396,1325.6278535519114,2.4689000000000005,10.615122,11.197635,3.0,-1.0
Cs4ZnO3,mp-1019612,14,-3.6251461653125,4.773748667500633,-1.4278524772467676,897.4882766677503,1.6759,7.152475,19.214643,3.0,-1.0
Li2Ge4O9,mp-1020012,29,-6.1927974526666665,4.16791356034563,-2.158067694527778,714.6467722152344,2.7381,4.695928,16.098192,3.0,-1.0
LiCa3Si2N5,mp-1020056,15,-6.6326729615909095,3.0385509207692305,-1.3109719175212122,553.8779100915114,2.4385000000000003,10.420459356188907,10.581304556722342,3.0,-1.0
Mg(NO3)2,mp-1020058,148,-6.219498270462962,2.259541939571467,-1.4440296884918518,1307.9598935083682,3.4668,14.559349508843345,14.559349767470248,3.0,-1.0
LiCaAl3N4,mp-1020107,88,-6.580340671805555,2.991310116930157,-1.3624363399003698,817.095550439076,3.0206,10.247012617040737,10.247012617040737,3.0,-1.0
KNO3,mp-1020193,14,-5.859241643,1.9716607954217764,-1.499268134826,340.5977615381029,2.9047,4.683243,14.275016272485368,3.0,-1.0
SrMg3SiN4,mp-1020587,88,-5.9814753791666675,3.5279832920067244,-1.1230838042985178,921.1980115861293,3.007,10.67727183902035,10.67727183902035,3.0,-1.0
Y(NO3)3,mp-1020671,14,-6.8243249901923075,2.635770932638115,-1.5524113828889743,692.8011957840909,3.2704000000000004,6.229126,11.267703084342699,2.0,1.0
MoS2,mp-1023924,187,-7.236762006666668,1.729127580420431,-1.3062210854166676,153.7205764342924,1.6606999999999998,3.1903153919636225,17.439501999999994,2.0,1.0
WS2,mp-1023937,187,-7.893558746666668,2.7309312361995106,-1.258856678750001,150.77782511940194,1.8091,3.1907306611089887,17.101201,2.0,1.0
Na4Zn3S5,mp-1024070,62,-3.435142214375,3.0440208378136453,-1.2349097951215278,978.6663167464168,1.9107,3.931371,18.874952,3.0,-1.0
Na2Zn3S4,mp-1024072,61,-3.3811097238888888,3.27083863692744,-1.1254991982407414,752.3136766231153,2.2584,6.8554949999999995,14.131416,3.0,-1.0
Na2ZnS2,mp-1024076,61,-3.3921357785,2.57934362271788,-1.2251302230833332,903.9676222257167,2.1451,6.755634,18.675595,3.0,-1.0
Ca7SiN6,mp-1029474,60,-5.933308105357143,3.004270533805523,-1.1347833692342857,868.1597623930159,1.8303,6.175974,12.996186999999999,3.0,-1.0
SrGeN2,mp-1029497,61,-6.2456374878125,5.2403488057169385,-0.6912741169191658,954.5481722454505,2.4540999999999995,5.437576,16.177086,3.0,-1.0
KNbN2,mp-1029504,61,-7.7289323046875,3.5380722066788484,-0.9497702141274996,1201.6318839428059,2.0359,5.974729,16.825295,3.0,-1.0
Li7SbN4,mp-1029522,218,-4.657849685416667,3.0659706995287834,-0.5494038473211109,980.837915019784,2.2181,9.935714,9.935714,3.0,-1.0
CaTiN2,mp-1029572,61,-8.00007813640625,3.5711820061268367,-1.5485690684295823,862.699030046986,2.2611,4.99694,17.152658,3.0,-1.0
CsC2N3,mp-1029718,152,-7.4833101394444475,2.0329813993207093,-0.28224675028961604,487.4995697274836,4.0731,4.895849090267795,23.484841,3.0,-1.0
BaGeN2,mp-1029743,61,-6.19447868703125,6.044851396887332,-0.5827429219712492,1045.9830367074546,2.5305,5.5930839999999975,16.662798000000002,3.0,-1.0
Y4Te3N2,mp-1029811,62,-7.309810117222222,5.482974715156473,-1.6208399373807407,928.472819662507,1.3436000000000003,7.217617,11.668694,3.0,-1.0
Rb3W2N5,mp-1029857,80,-7.5184303445000005,5.211079116737786,-0.6564087349399997,884.736695349838,2.046,10.687226598981187,10.687226598981187,3.0,-1.0
K3W2N5,mp-1029938,80,-7.57950897975,4.534523089694576,-0.6785279078399995,812.9746941508987,2.18,10.386466073567467,10.386466073567467,3.0,-1.0
NaNbN2,mp-1030657,61,-7.74748793953125,3.7388858988352727,-0.9172625315545826,1022.6251780967384,2.2984,5.651865,15.959748999999999,3.0,-1.0
Li20Si3P3S23Cl,mp-1040451,6,-4.38518144,1.8396670132677395,-1.3486439421503191,982.915389590278,2.3968,8.776288000000001,12.75154308378484,3.0,-1.0
Tl2TeMo2(PO7)2,mp-10448,60,-6.5245109757142865,5.0129201405269175,-2.107283297840136,1343.8035861572585,2.8238000000000003,9.229453,12.656989,3.0,-1.0
Cs2Ti(AgS2)2,mp-10488,132,-4.5497735383333335,4.178013146940503,-1.3005104011143045,522.7814447441749,1.9722,6.1097209999999995,14.004816,3.0,-1.0
RbSbS2,mp-10621,2,-4.059838903125,3.504782323620724,-1.0459601415625,514.2690031158602,2.0737,6.6892309999999995,12.283297730880909,3.0,-1.0
PbS,mp-1067627,12,-4.39858281,2.651186294135805,-0.8057643415625,299.72158550220473,2.0879,4.244495412434794,16.686755528784047,2.0,1.0
K3Cu5O4,mp-10914,14,-4.503823164375,3.5207705123999102,-1.1029988255416665,941.4375102767572,1.5514,7.3242080000000005,14.071412407487529,3.0,-1.0
P,mp-1094075,6,-5.345582629,0.7531643069387214,0.06770323242857118,682.8940427305091,1.3057,5.598318,19.809882,2.0,1.0
Na2Zn2S3,mp-1094106,96,-3.407100943571429,2.892264639823748,-1.18313505014881,626.9340210815725,2.031,7.457378,11.27326,3.0,-1.0
Al2ZnS4,mp-1096809,62,-4.5354940560714265,3.0888897639451467,-1.3008005221428576,532.4926038263234,2.187099999999999,5.910544,12.474986,3.0,-1.0
Al4ZnS7,mp-1096832,31,-4.742598292916667,2.147537361677574,-1.363183626406251,615.1660999965585,3.0135,6.170175,15.237119,3.0,-1.0
KSnBr3,mp-1097014,62,-3.1889666544999997,3.718323311782148,-1.1828165701,710.1028421330849,2.2706,4.519329,16.280493,3.0,-1.0
KSnI3,mp-1097015,62,-2.839294684,4.145998244761501,-0.9008929546,862.7464700903912,1.9402,4.789615,17.345938,3.0,-1.0
Li20Si3P3S23Cl,mp-1097034,6,-4.3847452208,1.8238871791477704,-1.3482077229503189,991.4193376299517,2.3811,8.77029,12.771844530833595,3.0,-1.0
Li20Si3P3S23Cl,mp-1097035,6,-4.3897072508,1.810902081621219,-1.353169752950319,998.528323212048,2.3126,8.771989,12.792653851775091,3.0,-1.0
Li3PS4,mp-1097036,62,-4.382046800625,1.8070852759779537,-1.2530450595089286,661.8199848807707,2.4824,6.2218050000000025,13.423115,3.0,-1.0
CaSnS3,mp-1100335,2,-4.681151784666667,3.1260222491891847,-1.3943235175416668,812.6798833796338,1.8749,8.607266000000001,11.84583590714294,3.0,-1.0
Ca5Sn3S11,mp-1100378,2,-4.795730186578949,2.93188054504358,-1.6241721075986846,1029.932983301411,1.9309000000000005,8.749305,13.915271392837793,3.0,-1.0
BaPS3,mp-11006,14,-5.1215828975,3.2227189959565288,-1.5713376390892857,545.1366331376664,3.1164000000000005,6.85668,12.013754874215346,3.0,-1.0
CaPSe3,mp-11007,14,-4.467223993999999,3.975220831706386,-0.8858999591205354,514.5200654711609,2.1698,6.960278999999999,11.734872604609091,3.0,-1.0
BaPSe3,mp-11008,14,-4.5752857470000015,4.429132317645997,-1.0112875221205355,607.6300603214738,2.1782,7.169792,12.538270180933615,3.0,-1.0
SrCa2I6,mp-1101357,14,-3.234278831111112,3.957015980386268,-1.5848614196296296,779.8692707095253,3.5449,7.4190710000000015,14.679076332838994,3.0,-1.0
Sr2CaI6,mp-1101358,14,-3.2706625883333333,4.280731821682263,-1.6563694687037038,757.7783422423288,3.6613,7.658465,13.870422063912585,3.0,-1.0
SrCa2I6,mp-1101362,15,-3.2452004427777776,4.118057790718037,-1.5957830312962964,749.371505607671,3.5701,8.520999511319138,11.870340151138803,3.0,-1.0
Sr2CaI6,mp-1101374,15,-3.2053479155555555,4.246981489516443,-1.591054795925926,763.8003300522298,3.2623999999999995,8.860653135630859,11.515646396223184,3.0,-1.0
Rb3FeO3,mp-1101417,14,-4.669110170357143,4.0111883671768584,-1.6097385269642843,596.5349897849343,2.2648,6.6702699999999995,14.887622,3.0,-1.0
RbV2Fe(AgO4)2,mp-1103452,147,-6.246645238928571,4.836373169915351,-1.8786606068452367,403.0358463737085,2.0558,5.54175200088176,15.153817009140699,3.0,-1.0
Cs2CdI4,mp-1103539,11,-2.4371203407142863,3.949129235448357,-1.1785853458374385,744.9599544854573,2.8822,8.104296000000001,11.37090290964429,3.0,-1.0
Rb2Cd(IBr)2,mp-1103709,40,-2.597120526428572,3.672214033491801,-1.2820010671428574,630.3201151188647,3.1710000000000003,7.463583222486367,12.010117999999999,3.0,-1.0
KV2Fe(AgO4)2,mp-1103811,147,-6.2559331517857135,4.524063208121492,-1.878672457238096,396.8191731264383,1.9969,5.537296214457468,14.946627077177679,3.0,-1.0
Cs4Au6S5,mp-1104686,157,-3.6049243426666666,5.725533062129543,-0.8989344718232762,543.4304139191684,2.4949,5.547168,10.635820597489458,3.0,-1.0
Ni3Se4(ClO5)2,mp-1105005,12,-4.853491102105264,4.095410275948235,-1.1799957025471053,586.1543041373158,3.1206000000000005,7.487580165732116,11.692071845178551,3.0,-1.0
TlHgCl3,mp-1105094,62,-2.419136579,5.614203030128577,-1.133759323956,604.9565757474827,2.6787,4.491792,14.158435999999998,1.0,1.0
SnBr2,mp-1105170,176,-3.198944881111111,4.584559007304661,-0.7711365694444446,605.2796166624597,2.4179000000000004,4.383655,12.626835354447449,1.0,1.0
RbBi2Br7,mp-1105176,2,-2.990790295,4.544241956609387,-0.9688814477500004,776.6966941627063,2.8629,7.819597999999999,10.70384992005741,3.0,-1.0
CsBi2Br7,mp-1105273,2,-3.004325807,4.698911434972762,-0.9909301297931036,784.6587246032643,2.8654,7.8162850000000015,10.844118507965183,3.0,-1.0
NbAlBr8,mp-1105368,63,-3.674872755,3.25242382743203,-0.9806434359999996,775.1439221651411,1.534,9.181731,10.375283046987633,0.0,1.0
Ba2P7Br,mp-1105535,11,-5.116019698000001,3.5601676377858764,-0.7792327750000005,533.0026559365185,1.9715,6.384208,12.054403954621108,3.0,-1.0
BiI3,mp-1106279,14,-2.57746235375,4.413745831021496,-0.4619443150000002,887.4182123990354,2.3476000000000004,8.031667,13.276311999999999,2.0,1.0
Na3MoCl6,mp-1106352,163,-4.017685028,2.430887726404748,-1.7864144739559995,515.9143225513964,1.7281000000000002,6.952694321520902,12.323688,3.0,-1.0
Cs3W2N5,mp-1119092,80,-7.490709914500001,5.731606778894332,-0.6542278150693107,969.3089602552147,1.9073,11.023984350283067,11.023984350283067,3.0,-1.0
RbGeCl3,mp-1120729,33,-3.5453230069999995,2.6913626247610645,-1.6723000354559996,652.6916130563071,2.5696,7.4374970000000005,10.93008,3.0,-1.0
PdSe2,mp-1120759,14,-4.32524793,1.2819232067533572,-0.2680130082291659,684.8255723160453,1.3764999999999996,5.751231,20.19171232234812,2.0,1.0
CsPbI3,mp-1120768,62,-2.858535925,4.74650734914947,-1.0225184675862071,1008.697799944696,1.6364,8.853381,12.757759,3.0,-1.0
Li6Zn3(PS4)4,mp-1147606,4,-4.284723786379312,2.326646236034426,-1.0966634641133006,1248.7097668582512,2.6809000000000003,9.289602,11.596375371727364,3.0,-1.0
K6ZnS4,mp-1147618,186,-3.2917748127272732,2.1837186059678797,-1.3086751073181822,651.3114520082963,1.9614000000000005,7.695349,9.885869516315747,3.0,-1.0
Li3InBr6,mp-1147621,15,-3.0879489815,3.851715723433905,-1.2579478245,530.3296163756229,2.6242,6.839258942751767,13.278447388234255,3.0,-1.0
K6ZnSe4,mp-1147626,186,-3.0708564963636364,2.788625392735396,-1.079421659761364,733.4254280206203,1.6625,7.981021000000001,10.301096153440419,3.0,-1.0
Li10Zn7(PS4)8,mp-1147627,1,-4.267451759298246,2.403601812684267,-1.0683395388053472,1244.3277666298504,2.6635,9.205077000000001,11.631485383029116,3.0,-1.0
K2Zn3S4,mp-1147666,62,-3.45655366,3.1140046229487104,-1.2463327498333332,858.922102236251,2.4299,6.216585,13.76092,3.0,-1.0
Li10Zn(PS4)4,mp-1147681,7,-4.357818354677419,2.0228894938096733,-1.210400496858679,1267.0269438170965,2.5018,7.908961,17.90837017051284,3.0,-1.0
Li10Zn(PS4)4,mp-1147684,7,-4.357822349677419,2.013463810634496,-1.2104044918586796,1272.9583116836336,2.5761,7.901476,17.949276042113926,3.0,-1.0
Li10Zn(PS4)4,mp-1147685,7,-4.3579775262903215,2.0154390551019747,-1.2105596684715827,1271.7107404131852,2.5073,7.92157,17.921931933103643,3.0,-1.0
Li10Zn(PS4)4,mp-1147686,1,-4.357675946290323,2.018366696204462,-1.2102580884715828,1269.8661238521267,2.4480000000000004,7.910543,12.99232646117415,3.0,-1.0
Li10Zn(PS4)4,mp-1147687,7,-4.357934185806451,2.01060544114465,-1.2105163279877116,1274.7680079698878,2.5782000000000003,7.911964999999999,17.9103104308338,3.0,-1.0
Li10Zn(PS4)4,mp-1147692,1,-4.34995299983871,2.0089549783069898,-1.2025351420199697,1275.8152973549215,2.5379000000000005,10.23602801887292,13.994670090130956,3.0,-1.0
Li10Zn(PS4)4,mp-1147694,1,-4.3597684,2.0477039909708106,-1.21235054218126,625.8364256559968,2.6989,6.16184,13.058767809651911,3.0,-1.0
Li10Zn(PS4)4,mp-1147695,1,-4.359789731935484,2.0229005081103524,-1.2123718741167442,633.5100225506404,2.7281,6.156322,12.996507175481955,3.0,-1.0
Li10Zn(PS4)4,mp-1147696,1,-4.358355820645161,2.0196390245109095,-1.2109379628264212,634.5330680174571,2.5226999999999995,6.1788870000000005,13.00067592350494,3.0,-1.0
Li10Zn(PS4)4,mp-1147697,1,-4.357512397419355,2.0077955629030924,-1.210094539600615,638.2760128514864,2.5250000000000004,6.184183,10.278751222303127,3.0,-1.0
Li10Zn(PS4)4,mp-1147698,1,-4.359609782903226,2.0427446525269652,-1.2121919250844857,627.355819987283,2.7306000000000004,6.5286800000000005,12.366699180846275,3.0,-1.0
Li4Zn(PS4)2,mp-1147721,4,-4.318955912000002,2.1802610847518467,-1.15189419636508,627.0305664566723,2.7266,5.76335,11.4944808197876,3.0,-1.0
Li4Zn(PS4)2,mp-1147723,1,-4.319127862888888,2.1889589379859458,-1.1520661472539675,936.8085800548946,2.7069000000000005,6.408722,18.473987565224594,3.0,-1.0
Li4Zn(PS4)2,mp-1147725,1,-4.318373477111111,2.178908435104722,-1.1513117614761907,941.1297333357322,2.6577999999999995,6.377711,18.41846428977544,3.0,-1.0
Li4Zn(PS4)2,mp-1147726,1,-4.317982983777777,2.1609073232804,-1.150921268142857,948.9696723226816,2.3984999999999994,6.140381,19.09873334806018,3.0,-1.0
Li4Zn(PS4)2,mp-1147727,1,-4.318295290888889,2.188364685889044,-1.1512335752539684,937.0629711381924,2.6417,6.406675,18.44270296633232,3.0,-1.0
Li4Zn(PS4)2,mp-1147729,1,-4.318416067111111,2.166460683513048,-1.15135435147619,946.5371470152202,2.6757000000000004,10.247515,10.281354019698911,3.0,-1.0
Li4Zn(PS4)2,mp-1147732,1,-4.318557024,2.180058196663361,-1.1514953083650792,940.6333820040393,2.6416000000000004,6.377077,18.42789303292943,3.0,-1.0
Li4Zn(PS4)2,mp-1147734,1,-4.318203085666667,2.1612481752232027,-1.1511413700317468,632.5466731067123,2.7447,5.746727,11.529040820068117,3.0,-1.0
K2Mg(PSe3)2,mp-11643,14,-3.96131994590909,3.1948709094540653,-0.7228546247459413,663.4203466102833,1.791,6.580989999999999,13.041087,3.0,-1.0
P2H24AuC8I,mp-1173391,63,-4.921472978333333,1.774640476846571,-0.2772398852506339,947.110211793352,3.1233,7.856265,11.754472790566235,0.0,1.0
Os(OF2)2,mp-1173465,169,-5.469418118809523,3.21020796904727,-1.840722986989524,925.5661410691984,2.0344,9.523586509979998,11.783539999999999,0.0,1.0
Li7NbS6,mp-1176851,7,-4.59563314,2.037161729997208,-1.4312256894345237,544.3125972911466,2.3424,7.134586,12.243296116352735,3.0,-1.0
Li5SbS,mp-1177072,14,-3.4008168691071434,2.297648923851912,-0.9513018062202384,1090.023552253627,1.2977,8.028121,15.880895800946051,3.0,-1.0
Cs6Br4O,mp-1178399,167,-3.1071990831818184,3.720569094985385,-1.6375821867123823,1011.3886372130064,1.8138,10.039813618882077,10.039814068126807,3.0,-1.0
Cs2MgO2,mp-1178409,14,-4.2341919607500005,4.202925265140574,-1.8577088144224136,1018.1176506231261,2.0297,6.783987,16.712568409658644,3.0,-1.0
Cs5YO4,mp-1178475,14,-4.69096099475,4.525476620705515,-1.898346509882184,1199.7636855776684,1.93,7.574574,13.435436,3.0,-1.0
BaSrI4,mp-1178504,62,-3.3457381629166663,3.765558653325564,-1.7283210723611109,1292.188186722124,4.0608,10.26861,11.218411999999999,3.0,-1.0
BaSrI4,mp-1178508,52,-3.33534448,3.971559913111384,-1.7179273894444442,1225.1635414520565,3.7429,10.371915,10.959937,3.0,-1.0
BaSr2I6,mp-1178509,15,-3.292214848888889,3.840063525408748,-1.6875471792592591,928.8433295942084,3.6641,8.974789863662435,13.730002924973473,3.0,-1.0
BaSr2I6,mp-1178512,64,-3.3087603172222213,4.349607779599248,-1.7040926475925928,820.0319595535042,3.2443,8.166155999999999,12.949158696960392,3.0,-1.0
BaSr2I6,mp-1178516,15,-3.3334781622222223,4.121127770561465,-1.7288104925925931,865.4954637108937,3.8956,10.273996248234472,12.023128198732474,3.0,-1.0
BaSrI4,mp-1178528,62,-3.3462214675,3.7401706072002137,-1.7288043769444446,1300.959479995211,3.6089,10.294089,11.252343,3.0,-1.0
BaCaI4,mp-1178538,62,-3.3380743120833336,3.7324900954832887,-1.6679707837500002,1219.0331115748693,3.2671,9.926233,11.082908999999999,3.0,-1.0
Ba2SrI6,mp-1178555,15,-3.3595544166666667,3.9215788525270456,-1.7293879051851857,951.6315652192208,3.8569,9.102612555191447,13.825537341869431,3.0,-1.0
SrI2O,mp-1179200,62,-3.8349562425,4.446630096658955,-1.5891632544791667,533.9087886135981,1.9014,4.454761,13.570569,3.0,-1.0
Tl2Sn(GeO3)3,mp-1179240,165,-5.8739751426666675,6.217674171885544,-1.8197784360833336,1425.1652231326736,2.4616,10.777178999999999,12.357048447056439,3.0,-1.0
Rb8(GaH3)5,mp-1179380,203,-2.8191712064285714,2.9116925068708754,-0.2627140630999999,1194.7522930329608,2.8354,11.910526421296082,11.910526421296082,3.0,-1.0
NaSeO3,mp-1180453,15,-5.021289466000001,2.4874612212149927,-1.5117774458854172,800.7986900801808,3.0887,10.878386336700173,11.806378554402276,2.0,1.0
K2HgCl4,mp-1180946,55,-2.7990801632142857,3.2478663661424223,-1.7219541395057143,860.159043411382,2.3538,7.89248,12.004753,3.0,-1.0
K2Pt(NO2)4,mp-1181207,14,-6.095201933333333,2.826175276155002,-1.1574073930346669,1074.765374907491,2.2285000000000004,7.969403999999999,13.692658999999999,3.0,-1.0
Cs3Li2I5,mp-1181918,12,-2.8182557145,3.706671553381549,-1.4058441220459772,938.1920217205864,3.7483,12.128497529916885,15.766119847496565,3.0,-1.0
BaSnHgS4,mp-1183390,34,-4.108672190357144,4.696678158305298,-1.2337889735714285,827.1613939132862,1.8559,6.735264999999999,11.13522,3.0,-1.0
B4H5,mp-1183667,14,-4.9263872679861125,0.98126689237535,-0.1579150024046293,1307.3217205714175,2.8479,5.871894999999999,16.546381987175597,0.0,1.0
Cs2HgBr4,mp-1183950,14,-2.500843049642857,4.123826991056265,-1.266244296908867,1266.0199165470426,2.4681,7.942222,16.67023700172334,3.0,-1.0
CsLi3I4,mp-1184020,6,-2.889852176875,3.5917645517866075,-1.3000744978663792,611.505239187407,3.7509,4.6804239999999995,11.678025476032882,3.0,-1.0
ScI3,mp-1186991,194,-3.91532258625,3.036565389314382,-1.1891958487499998,465.55265440454133,1.7014,3.8153129999999997,11.870089579797867,1.0,1.0
Cs3ZnBr5,mp-1188115,140,-2.893875291111111,3.756444601011864,-1.5460326881992341,763.5501146169963,3.6631,10.449025573254332,10.449025573254332,3.0,-1.0
TlBr3,mp-1188193,62,-2.211278654375,2.8647638316820765,-0.393170504375,1029.6661620590937,1.9392,6.816239,13.827353,0.0,1.0
Cs3CdBr5,mp-1188465,140,-2.823003136666667,3.822120307593931,-1.512588739310345,791.2704929938542,3.0743,10.716004081486766,10.716004081486766,3.0,-1.0
Ba2P7I,mp-1188687,11,-5.044239642,3.706353987437672,-0.7187441115000006,554.094683521044,1.9866,6.460412,12.249425514778476,3.0,-1.0
CsS3,mp-1188913,2,-3.868736334375,2.8172984264709147,-1.0401433412015084,540.1348284316613,1.6787,4.839427,11.82428631102161,3.0,-1.0
BiI3,mp-1189196,62,-2.57128030125,4.227851617394497,-0.4557622625,926.4370630307563,2.7885,7.782708,15.230125,1.0,1.0
TlBi2Cl7,mp-1189438,2,-3.3078417335,4.583900606712364,-1.4159738897819998,630.6961933242943,3.3238000000000003,7.184245,11.00165271788639,2.0,1.0
PBr3O,mp-1189731,33,-3.851648914,2.6693273112703166,-0.9377027239642856,713.3661118373668,3.2974,6.5642270000000025,10.600444,0.0,1.0
CsLiI2,mp-1190087,36,-2.82870081875,3.841100808698036,-1.3656132015660918,680.7216884778944,3.7315,10.550659694978792,13.573601000000002,3.0,-1.0
CsHf2Br9,mp-1190089,13,-4.490122945416666,4.384345434681508,-1.5282797010775866,915.8162298784482,3.1447000000000003,7.094125,13.589557618521841,3.0,-1.0
Na2In2SiS6,mp-1190138,9,-4.331797848181818,2.8849141197655848,-1.2048955650378788,571.0939847221404,2.5139,7.296409436360394,12.380627837531419,3.0,-1.0
Na2TeS3,mp-1190141,14,-3.69958850125,2.904618695480478,-1.0009926739236108,616.9087338725751,1.7919,5.859269,12.366417,3.0,-1.0