pretty_formula,task_id,spacegroup.number,final_energy_per_atom,density,formation_energy_per_atom,volume,band_gap,min_abc,max_abc,Dimension,Dim
GaTe,mp-10009,194,-3.44979083,4.8047225174667245,-0.36409261375,272.7837447823904,0.8979999999999997,4.1345994505180315,18.42557,2.0,1.0
Ba5As3,mp-10045,193,-3.944894068125,4.8938834967592015,-0.9983678975,618.4924402853608,0.0,7.804907000000001,9.565727607091107,3.0,-1.0
Mg(InSe2)2,mp-1006591,2,-3.738462426071429,4.7215878602033605,-0.7259919374107139,801.546969299149,0.7989999999999999,7.16965,13.693734212820619,2.0,1.0
Ba5Sb4,mp-10089,64,-3.9536164377777774,5.136328539177757,-1.0524098699999995,758.8818254619466,0.2709000000000001,9.197422,10.109169174452717,3.0,-1.0
KV(CuSe2)2,mp-10091,40,-4.742808555,4.3572022858497625,-0.6957630215468749,406.23337510414484,0.9137,7.7088649999999985,9.802777110554844,3.0,-1.0
Na3Sr3GaP4,mp-10096,186,-3.844209692272728,3.0588580072681832,-0.7811515687987015,570.4912485252823,0.7466999999999997,7.407446,9.430287157354222,3.0,-1.0
Na3Sr3GaAs4,mp-10097,186,-3.6141364395454563,3.765986194116567,-0.8253210274999997,618.3953999616714,0.4378000000000002,7.601422,9.692155728551466,3.0,-1.0
VS2,mp-1013525,194,-6.636547675,3.0236853435834594,-1.2932524070833342,126.3892895520712,0.0,3.180255578645842,14.429642000000001,2.0,1.0
Cd5(S2Cl)2,mp-1013730,72,-2.9482813950000004,4.08442206256304,-1.0379077385472728,618.9552350146278,1.7229,10.182781728571275,10.182781728571275,3.0,-1.0
Sn5(S2Cl)2,mp-1013760,2,-4.164637786363636,4.452468164643772,-0.8512268140018187,591.2836826871287,1.1683000000000003,7.3165070000000005,10.589937310676444,3.0,-1.0
Sn5(S2Cl)2,mp-1014204,28,-4.2131594331818185,4.147775930179823,-0.8997484608200004,634.7188994183766,0.6238,5.88605,18.036104,3.0,-1.0
MoSeS,mp-1018806,38,-6.9152368750000015,3.8404981799630287,-0.9770554168229176,178.9733788766838,0.8390000000000001,3.2563588438114435,19.490903,2.0,1.0
MoSe2,mp-1018807,194,-6.616389411666668,6.155754951852687,-0.6705674165625007,136.95946337831543,1.3035999999999994,3.3287360532676664,14.272587,2.0,1.0
MoS2,mp-1018809,194,-7.237796761666666,4.306155808586161,-1.3072558404166668,123.45233205945364,1.3361,3.1929179132237326,13.982768,2.0,1.0
PdCl2,mp-1018888,10,-3.40973315,3.3228003236394064,-0.8472052288399997,177.23409283973956,1.0151,3.420218,11.875227667934327,1.0,1.0
Ba3Ga3N5,mp-1019515,15,-5.623803040227274,5.794256170050904,-0.6598430460818179,792.3275535325446,1.4397999999999995,9.480557069576133,11.783284224122324,3.0,-1.0
Ba4Mg(SiN3)2,mp-1019517,70,-6.313499839230769,5.025194034876678,-1.0949133364830763,471.75610038452203,1.6017,6.991501716396557,11.794882097142851,3.0,-1.0
Ba3Ca2(SiN3)2,mp-1019520,15,-6.433688010384616,4.570850511220173,-1.1772592860984616,459.4501120597294,1.8748,6.1316470423860014,13.440969873053806,3.0,-1.0
Ba3MgGeN4,mp-1019521,52,-5.593019498888888,5.429756978596064,-0.7274518160577775,691.0999507956774,1.2902,6.297235,10.702427,3.0,-1.0
Ca16(SiN2)17,mp-1019552,216,-7.271053390149254,3.0764422005871004,-1.3799490498644778,860.8783258172605,0.0,10.677893637691005,10.677893637691005,3.0,-1.0
Mn(NbS2)3,mp-10199,182,-7.379909708,4.766913325738757,-1.3495536288405177,366.49372114693637,0.0,5.838388584437062,12.415092,3.0,-1.0
Na2PdS2,mp-10223,36,-4.0533082810000005,3.4927158045315823,-1.1022750855833336,205.8889288302528,1.1750000000000005,5.523345588033127,10.980503,3.0,-1.0
Te2W,mp-1023926,187,-6.492265323333334,3.8042057269551055,-0.07735588000000011,191.64133701664744,1.4108,3.5543496588369017,17.516133,2.0,1.0
MoSe2,mp-1023934,187,-6.617718553333333,2.4809439300963136,-0.6718965582291668,169.9129280324812,1.4311,3.3269484459426177,17.725711999999994,2.0,1.0
Te2Mo,mp-1023935,187,-5.9827004566666675,3.0081206763588058,-0.2719521600000003,193.8358698267777,1.2682,3.5587106367870085,17.673323,2.0,1.0
WSe2,mp-1023936,187,-7.206082103333332,3.380545359692427,-0.5560989615624999,167.87404723741068,1.5378,3.3256124545504395,17.527085,2.0,1.0
Na2Zn2Se3,mp-1024049,15,-3.1086930882142854,4.039616398260673,-0.8749036473139878,680.1910340294453,1.4982000000000002,7.115993861444372,10.397747925324985,3.0,-1.0
Na2Zn3Se4,mp-1024050,72,-3.0384366555555555,4.2579669075100295,-0.772638747337963,435.2584688365618,1.4470999999999998,9.119297812200946,9.119297812200946,3.0,-1.0
Na2Zn2Se3,mp-1024051,96,-3.0630913200000003,3.8246293810345233,-0.8293018790997024,718.4253900889094,1.4098,7.778733,11.873095,3.0,-1.0
CdIBr,mp-1025115,160,-2.076793025,4.854189250576384,-0.7155167200000001,218.3995610354111,2.2325,14.369878495543134,14.369879295441036,2.0,1.0
SrCu,mp-1025402,194,-2.99994808625,4.000956388487638,-0.105604124583333,250.95704543436932,0.0,4.343767622286556,15.358032000000001,2.0,1.0
LiNbSe2,mp-1025496,194,-5.82444699125,5.795759440803728,-1.0739342757552093,147.70551088496177,0.7323000000000004,3.5296311530181166,13.690123000000002,3.0,-1.0
AlV2C,mp-1025497,194,-8.30094350625,4.872389281960079,-0.51590133875,96.02222797673944,0.0,2.9095901259225503,13.097172,3.0,-1.0
Ti2InN,mp-1025517,194,-7.78623836,6.3713483485827975,-1.162453372261666,117.05167374119556,0.0,3.11195517601202,13.956620000000001,3.0,-1.0
CsCoN,mp-1029491,62,-5.4135860624999985,5.06984894971049,-0.09485527760367772,269.68396383864507,0.0,3.5194959999999997,10.533203,3.0,-1.0
Ca2CrN3,mp-1029550,64,-7.396270784583333,3.4520003889619004,-1.1426601524399989,335.13291984609987,0.0,5.9088469317460754,11.658214,3.0,-1.0
Li3InN2,mp-1029562,206,-4.517112934166667,4.078534193669254,-0.453213483293333,533.043513608989,1.0920999999999998,8.846976043103544,8.846976043103544,3.0,-1.0
Na3IrN2,mp-1029569,14,-4.9183813191666665,4.253542896762987,-0.13715941162666626,451.6022756305921,0.23729999999999984,7.0312779999999995,11.054230980698838,3.0,-1.0
Mg2ReN3,mp-1029627,15,-7.169153677916667,5.903985033023504,-0.5854030366066661,311.44985433598464,0.3270999999999997,5.55589420330229,14.791621542887347,3.0,-1.0
KCrN2,mp-1029673,61,-7.32471014890625,3.06811666639198,-0.6576124508462486,1031.4244289510257,0.0,5.724646,15.687762,3.0,-1.0
Ca2MoN3,mp-1029689,15,-7.515206022916666,4.026227008030034,-1.0628294641066656,359.83098258699135,0.0013999999999994015,6.054816085115467,11.950249855852096,3.0,-1.0
RbCrN2,mp-1029828,57,-7.2941876140625,4.054140004764917,-0.6595561346274996,542.2240395497572,0.1902999999999997,5.7659410000000015,11.531802,3.0,-1.0
Ba2CrN3,mp-1029843,64,-7.221677707083334,5.528220826495236,-0.9969434249399995,442.9571748343855,0.0,6.540186261553259,12.946536,3.0,-1.0
Ca5(RuN3)2,mp-1029860,15,-6.604578598461537,4.020926727039103,-0.7359930726369223,401.8818946936348,0.0,5.992577593625718,12.619361949044807,3.0,-1.0
Sr5(SiN3)2,mp-1029868,15,-6.3295125899999976,4.354039072774625,-1.1746766336625636,441.1114940410337,1.5653999999999997,6.0591940437814005,13.44081341154835,3.0,-1.0
Ca5(OsN3)2,mp-1029899,15,-6.912541421923077,5.419104742642462,-0.7435028507138459,407.475479634711,0.0,6.0142807690457865,12.613055980074616,3.0,-1.0
Ca2SnN2,mp-1029915,64,-5.599797605,4.294750158701805,-0.8146544069519998,350.88616863398414,0.00199999999999978,6.1949495313045135,12.130428,3.0,-1.0
Ca2MnN3,mp-1029959,64,-7.1493194325000005,3.5334750763198586,-0.977598966965862,332.9356519206238,0.0,5.914961894422059,11.625380999999999,3.0,-1.0
Sr8Co3N8,mp-1030752,12,-5.866784634736844,4.583329833030271,-0.6846487972301748,358.6090292876848,0.0,7.460213128600618,9.732360974246383,3.0,-1.0
BaYCuTe3,mp-10336,63,-4.8999547125000005,5.859023896080573,-1.2475294786111109,381.23874406486715,0.5313999999999997,7.817018821802849,11.449826,3.0,-1.0
BaYAgTe3,mp-10337,63,-4.703649966666666,5.9872507608831445,-1.262333177222222,397.6590418390843,0.7675000000000001,7.926812922138254,11.534647,3.0,-1.0
CoPSe,mp-10368,61,-5.8030493920833335,6.2749659793806005,-0.4638776807217262,357.49698733383934,0.6977000000000002,5.600318,11.23258,3.0,-1.0
Mg2Cd,mp-1039026,187,-1.3841837916666666,3.965837731759137,-0.009700504999999934,134.84246160742208,0.0,3.149825711179905,15.693614000000002,3.0,-1.0
MgCd2,mp-1039056,164,-1.140385495,6.1003529734261255,0.008301028333333349,135.62661631119397,0.0,3.116316153962078,16.126172,3.0,-1.0
MgCd,mp-1039136,156,-1.2688489433333332,5.076775640289714,-0.007264038333333259,134.1534125878745,0.0,3.159364447040576,15.519283999999999,3.0,-1.0
MgCd2,mp-1039175,187,-1.1551067316666666,6.1465943268370875,-0.00642020833333327,134.60628570805062,0.0,3.1207721459952817,15.959181,3.0,-1.0
MgCd2,mp-1039217,194,-1.154253515,6.1333136463618825,-0.005566991666666668,134.89775344857674,0.0,3.1525357728025867,15.673067999999999,3.0,-1.0
Ca5Mg,mp-1039385,187,-1.9038511816666668,1.5783297671658094,0.034195393333333435,236.39852287629688,0.0,3.8168024388884736,18.737636,3.0,-1.0
Mg5Cd,mp-1039434,187,-1.48075273,2.8426531417044694,0.006628938333333186,136.65398053144642,0.0,3.148998636990813,15.912806,3.0,-1.0
Mg2Cd,mp-1039495,194,-1.3842058483333333,3.960416771952052,-0.009722561666666666,135.02703197128858,0.0,3.1699901128061896,15.515804000000001,3.0,-1.0
C,mp-1040425,191,-9.219185055,0.37811414066880783,0.007595645000000317,105.4932065324787,0.00010000000000021103,2.4680302794645765,19.998293,2.0,1.0
Mn(SbS2)2,mp-10412,12,-5.195149134285714,4.112836594908207,-0.722053646022167,344.5709392018729,0.6915000000000004,6.621774949469741,15.5027889181854,2.0,1.0
Cu8SiSe6,mp-10428,31,-4.070832546666667,6.239844164431357,-0.1245367969374996,537.6733579081588,0.7764999999999995,7.201775,10.217744,3.0,-1.0
RbSb,mp-10487,14,-2.97389139375,3.888459866997626,-0.4191237374999997,707.9612378281113,0.6892999999999998,7.320442999999999,14.054119993468854,3.0,-1.0
Cs2Ti(CuSe2)2,mp-10489,132,-4.502767202222223,4.941739748283294,-0.9618387565078228,508.47692004534247,1.6397999999999997,5.913543,14.540379000000001,3.0,-1.0
RbBSe3,mp-10552,14,-4.1791203835,3.8191793545415162,-0.5495883282395829,579.4157869268114,1.5900999999999998,6.2838389999999995,12.701163000000001,3.0,-1.0
Sr5NbN5,mp-10577,57,-6.355587509772728,4.635683250236905,-1.0545809420666663,861.1892982753477,1.1591,6.512289,18.030054999999997,3.0,-1.0
Ba3(AlGe)2,mp-10669,71,-3.681583948571429,4.452898458893364,-0.4681382542857148,227.93276514312728,0.0,10.665081732779829,10.665081732779829,3.0,-1.0
TaS2,mp-1072086,194,-7.756305505,4.7490320730269815,-1.4883863837500009,171.38709018661737,0.0,3.344623696798341,17.691022,2.0,1.0
NbSe2,mp-1072113,194,-6.5369170883333325,5.6985080084390844,-0.8392077565625004,146.18107136360598,0.0,3.488132066031474,13.873137,2.0,1.0
Mn(InSe2)2,mp-1078140,160,-4.533608338571429,4.837884419632603,-0.4409340755757393,206.0840837395501,0.0,13.632198205049471,13.632198872089267,2.0,1.0
Ca,mp-1078638,92,-1.98644787875,1.5961836142621395,0.019152001250000158,333.55102316074857,0.0,4.5613779999999995,16.031352,3.0,-1.0
NaZn4As3,mp-1078703,166,-2.79080548875,5.053015362332343,-0.2494327547916666,167.39765858471978,0.0,11.227038542800367,11.227039133082952,3.0,-1.0
Na2PdSe2,mp-1078751,36,-3.771084982,4.439628770400863,-0.8108831422708331,232.1354976090209,0.8081,5.734336600885668,11.409895,3.0,-1.0
Ca(GaP)2,mp-1078849,194,-4.4505844219999995,3.73510261322048,-0.6729119004285714,214.7051583826301,0.22460000000000047,3.872610312678775,16.531195999999998,3.0,-1.0
Mn2Ga2S5,mp-1078896,164,-5.6068514688888875,3.6859296892190048,-0.9685677711039276,184.5490971934785,0.0,3.7279549802197183,15.333456,2.0,1.0
Cs2Sb2Pd,mp-1078965,63,-3.537212008,4.891782934722485,-0.4914742011724137,418.0391667816979,0.9606,6.892333,8.647992372795493,3.0,-1.0
Sr(InP)2,mp-1078973,194,-4.19145749,4.674834221628704,-0.5875734027619046,269.39234032346513,0.1833,4.152665783985632,18.038509,2.0,1.0
CsCd4As3,mp-1079080,123,-2.56533912375,5.754226732352926,-0.2447995453663792,232.9725463832629,0.5688,4.592039,11.048253,3.0,-1.0
InSe,mp-1079260,187,-3.6337331625,4.828159571413542,-0.509935558671875,266.58268807251403,0.6560999999999999,4.096473523735873,18.343448000000002,2.0,1.0
TaTlS3,mp-10795,62,-6.114656397999999,6.539340927594236,-1.1869763558750002,489.0970159433645,0.6057000000000001,3.523493,14.724654000000001,1.0,1.0
KTl,mp-1079544,194,-1.80481718375,4.770764090083162,-0.06879122025000006,338.99031783080824,0.0,5.4181078541200165,13.334028,2.0,1.0
Ti5Al2C3,mp-1079706,166,-8.203722387000001,4.12575272866118,-0.7388270026666659,132.54929730807208,0.0,16.30310729906569,16.303107504965187,3.0,-1.0
SrMnSb2,mp-1079721,129,-5.21067016375,5.6074669242399935,-0.4333726128304596,228.65856727846642,0.0,4.417008999999998,11.720089,3.0,-1.0
Ca(InP)2,mp-1079772,194,-4.249122044,4.342682661420563,-0.5820142314285711,253.63903394679008,0.4085000000000001,4.085596064432214,17.545858,2.0,1.0
BiI3,mp-1079786,11,-2.511269655,4.881606473122021,-0.3957516162500001,401.18334578122847,2.2403,4.16043,12.534295,1.0,1.0
ScTe,mp-1079832,194,-5.89467893875,5.639542155591295,-1.1567939212500002,203.2334009701176,0.0,4.11726604318181,13.843522,3.0,-1.0
Ti2SiC,mp-1079908,194,-8.4028789975,4.339723344325605,-0.7921093091666673,103.94734208991017,0.0,3.050964580209512,12.894618,3.0,-1.0
RbAs,mp-10802,19,-3.2421808925,3.6357650312010463,-0.4223546537499998,586.0287720090713,1.0461999999999998,6.742553,12.270141,3.0,-1.0
Cs2Se,mp-1080258,166,-2.747433178333333,3.59983915737602,-0.9851944377352732,318.0728525683345,1.5902,11.625265689009476,11.625266276001165,2.0,1.0
KCd4As3,mp-1080452,166,-2.5645594125,5.381324758005404,-0.2171452622500003,220.17002636459046,0.0,12.476154994002158,12.476155067112506,3.0,-1.0
GeTe,mp-1080459,62,-3.9225210725,5.78338207567182,-0.03935667999999959,229.97363020139647,0.2008000000000001,4.195972,11.810234,2.0,1.0
KCd4P3,mp-1080467,166,-2.79174124,4.787312235696754,-0.16151429358928526,201.75728271274403,0.10210000000000008,12.191481690173712,12.191481731357353,3.0,-1.0
CsMoN2,mp-1080845,57,-7.520373870625,5.062485511714319,-0.6088764262977584,674.0154134881291,0.0,6.200089,12.395503999999999,3.0,-1.0
KReN2,mp-1080849,57,-7.7463176190625,5.646419405717618,-0.3813499922524999,595.982079863746,0.0,6.21445,12.244077,3.0,-1.0
RbReN2,mp-1080850,57,-7.7126039828125,6.3640870962204845,-0.3801025746275002,625.5652462010783,0.0,6.245007,12.356843,3.0,-1.0
CsZn4As3,mp-1084778,123,-2.78805629875,5.3019488391204295,-0.29908979536637936,193.96306088086936,0.6175000000000002,4.260018,10.687992999999999,3.0,-1.0
RbCd4As3,mp-1086664,166,-2.54448676,5.573907660963003,-0.21330571906249984,226.37705122606567,0.0,12.749774844326625,12.749775230204847,3.0,-1.0
PbS,mp-1087486,11,-4.3756754075,6.288228057126068,-0.7828569390625004,252.73185142819543,1.2407999999999997,4.033142,10.56022666057907,3.0,-1.0
InMoS2,mp-1087488,194,-6.02639691375,5.563733853515824,-0.8905702903125006,164.08486637120282,0.0,3.2039315635250385,18.457437,2.0,1.0
Ge,mp-1091415,194,-4.6093201675,5.050840088891539,0.013707687500000176,191.0518736288809,0.0,4.080716241075823,13.247926000000001,3.0,-1.0
Zn(GaS2)2,mp-1094008,166,-4.046112352857143,3.715159097329824,-1.0164131982142857,148.89011659501253,0.6459999999999999,12.608307599828178,12.608307860082931,2.0,1.0
Ti3C2,mp-1094034,194,-9.109501352,4.505624960490742,-0.6814938619999993,123.55380045077487,0.0,3.070643385140808,15.130966,2.0,1.0
PAuS,mp-1094079,61,-4.320675910416667,6.437955764502242,-0.26729015431547626,536.5044749519433,0.5509999999999997,5.6582620000000015,16.638463,2.0,1.0
Nb4CoS8,mp-1094100,194,-7.205424600384616,4.984178744804263,-1.4133125319230773,457.81706736588285,0.0,6.692312691043732,11.803449,3.0,-1.0
Ca3(MgZn2)5,mp-1094154,9,-1.6551592905555554,4.156384995530778,-0.17651284666666653,715.8106209478196,0.0,9.274663450493984,9.556494405917947,3.0,-1.0
MgSn2,mp-1094241,194,-3.2337291866666664,5.639644111401933,-0.02725459999999973,154.12482724830969,0.0,3.400673935923437,15.389056,2.0,1.0
Sr2Mg,mp-1094281,63,-1.6838394075,2.582177739259236,-0.024091888611111226,513.2911851989769,0.0,6.09681887,13.80078979,2.0,1.0
Sr5Mg,mp-1094314,187,-1.610083855,2.5351625512449414,0.06453053111111108,302.87666039959026,0.0,4.276158468869577,19.126153,3.0,-1.0
MgTi5,mp-1094322,187,-6.784669985,4.031516728134054,0.06162003722222309,108.5905253631548,0.0,2.9587458273616543,14.323395000000001,3.0,-1.0
Y2Mg,mp-1094389,63,-4.895803655,3.823671633845956,-0.05139622944444433,351.0998940300672,0.0,5.23576597,12.80409233,2.0,1.0
Mg2Zn,mp-1094431,194,-1.48681013,3.156111096797306,-4.222666666671889e-05,119.97866870199397,0.0,3.0882003014053345,14.526551000000001,2.0,1.0
Mg2Zn,mp-1094438,187,-1.4875646999999999,3.1350445138262915,-0.0007967966666668027,120.784890294005,0.0,3.092612384473198,14.582467999999999,3.0,-1.0
Mg2Ga,mp-1094610,187,-2.130909425,3.1480364933384735,-0.054690890833333235,124.83754224818048,0.0,3.1178336113426584,14.828891,3.0,-1.0
MgGa5,mp-1094618,187,-2.78018951,5.391325115448604,0.00993675041666601,114.86011610430313,0.0,3.063039607856876,14.136222,3.0,-1.0
Mg5Ga,mp-1094631,187,-1.8462467916666665,2.4045587802564605,-0.0079974995833334,132.0719534979492,0.0,3.12443467857611,15.622017999999999,3.0,-1.0
Mg2Ga,mp-1094653,194,-2.1295929216666667,3.1251713318087635,-0.0533743874999999,125.75090995363183,0.0,3.1013169839669725,15.096910999999999,2.0,1.0
Ca3Mg4Zn11,mp-1094707,194,-1.5922068311111108,4.399175532173893,-0.1324790783333333,707.3357490235146,0.0,9.34448887177683,9.353710000000001,3.0,-1.0
WBr5,mp-1095321,2,-3.990297573333333,4.569571344535404,-0.4665043783333338,423.9750282267513,0.0,6.894130935344192,9.984284944371048,0.0,1.0
MnBi4S7,mp-1095372,12,-4.8504231675,6.152763186293847,-0.7643587692941812,301.00679702726984,0.6665000000000001,6.790284914589372,12.016224018864039,3.0,-1.0
Ti3GeC2,mp-1095505,194,-8.6345606625,5.369190210082468,-0.8407164450000005,148.61276498861378,0.0,3.095904422899389,17.904015,3.0,-1.0
SbSI,mp-1095595,33,-3.572808210833333,4.595263295663244,-0.5308069702083333,405.7763153818418,1.7025,4.1432199999999995,10.702902,1.0,1.0
YAsSe,mp-1095603,62,-6.3112411975,5.923479133717043,-1.4374075321701394,272.2440893294467,0.5104999999999995,3.912703,17.658465,3.0,-1.0
CsNa2,mp-1095650,194,-1.150780403333333,1.8059943263179727,0.024121865134099682,657.9101844529247,0.0,7.7248299827521105,12.730871,3.0,-1.0
SiGe,mp-1096549,4,-4.95443083625,3.8091318743712232,0.06974010124999985,702.5585178740614,0.5063000000000004,5.600638,11.200834062261482,3.0,-1.0
CaSn2S5,mp-1100353,55,-4.5729513209375,3.7418349525053967,-1.1492397053906256,777.1825374277656,0.8146999999999998,7.504291999999999,10.865114,3.0,-1.0
Mg9Si5,mp-1100712,155,-3.0681242328571434,2.174696357001833,-0.1017606221428566,548.5087294859396,0.0,12.964013189390464,12.964013302980065,3.0,-1.0
V7S8,mp-1100925,152,-7.351881942444445,4.7964799887251095,-1.2604645141111126,636.7756811990363,0.0,6.385020839279775,18.03187713985136,3.0,-1.0
Tl3Cu4As8Pb3S20,mp-1101021,1,-4.2550737489473685,4.7586927686232015,-0.5352718698026318,952.4923717894268,0.05869999999999996,7.777361999999999,14.389259080713716,3.0,-1.0
Ti2(InBr3)3,mp-1101135,186,-3.754017016428572,4.2633854191713265,-0.9841331533333332,903.086445898274,0.0,7.5183660424792444,18.448104999999998,0.0,1.0
Sn2N2O,mp-1101402,141,-6.255587340499999,6.544880060274074,-0.6216366297020002,571.2314416384332,0.6724999999999994,14.46468596924064,14.46468596924064,3.0,-1.0
NaNi3O5,mp-1101477,62,-4.680720215833333,4.937215592005387,-0.9705658157870372,375.4355839250508,0.0,2.911058,15.244682000000001,3.0,-1.0
CaGaSn,mp-1101813,194,-3.5141707291666666,4.875770209804873,-0.4997483166666665,311.29559131788375,0.0,4.5598617144269875,17.287770000000002,3.0,-1.0
BaGaGe,mp-1102026,194,-3.73376217,5.409027105158489,-0.5437307741666663,343.45264869863917,0.0,4.40141011044347,20.471637,3.0,-1.0
BaCaPb,mp-1102214,62,-3.1368070875,5.374836841505099,-0.5910678274999999,475.29005738589325,0.2647999999999997,5.3947330000000004,9.83708,3.0,-1.0
Cs2GeSe3,mp-1102254,12,-3.7173103841666655,3.92593975647244,-0.9003825454822193,486.69083136446403,1.6913999999999998,8.288208070507883,10.673409808830352,3.0,-1.0