pretty_formula,task_id,spacegroup.number,final_energy_per_atom,density,formation_energy_per_atom,volume,band_gap,min_abc,max_abc,Dimension,Dim
Te2PdPb2(ClO3)2,mp-1193732,14,-5.050732857692308,6.141724385048334,-1.4450811210784615,509.8761793296946,1.4803000000000002,5.554361,13.30471561848813,3.0,-1.0
Te7IrCl7,mp-1193756,2,-3.3635262060000004,4.722324670518262,-0.7222932881880003,937.874935441882,1.4028000000000005,9.477349,11.66483972158469,0.0,1.0
Rb3FeS3,mp-1193761,14,-4.163794484642858,3.0465123615795884,-1.0451409563392855,890.5084131590669,0.0795999999999999,8.044976,13.211519000000001,3.0,-1.0
Hg3(ClO5)2,mp-1193816,15,-3.4981446966666665,5.0049617386959016,-0.4397848476013337,552.5241297633155,0.0,9.649090983512382,11.4858040526126,0.0,1.0
Sc3Si3Rh,mp-1193822,62,-7.058100916785714,4.418662112492,-0.9670070246428578,484.0768029970996,0.0,4.029808,11.721447999999999,3.0,-1.0
Co(WCl5)2,mp-1193835,15,-4.720947228846153,4.104070792927447,-1.2160948825076925,632.1132638070322,0.0,8.88390087019368,12.405789657167412,2.0,1.0
Zr21S8,mp-1193856,87,-8.146443679655173,6.28185595505751,-0.9986632601724148,574.2033627023999,0.0,13.473707986377358,13.473707986377358,3.0,-1.0
Ba2H4Pd,mp-1193896,62,-3.7427553067857136,5.253544022984759,-0.6032167188542858,486.8965836813271,1.7513000000000003,5.8134760000000005,10.284889,3.0,-1.0
CsAg2BiS3,mp-1193928,14,-3.7422985967857145,5.515172547093427,-0.7609388411627666,787.4198530881331,1.0693,7.060513,13.61255323788392,3.0,-1.0
Sc11Ru4,mp-1194143,225,-7.521478253,4.9662527049022405,-0.4044970013333332,601.0504709229758,0.0,9.472733366748589,9.472733366748589,3.0,-1.0
Y4Zn5Ge6,mp-1194159,36,-4.557073731,6.0923854813363265,-0.5635557554444441,609.7207408198557,0.053100000000000584,9.599556521879384,15.348927999999999,3.0,-1.0
FeWCl5,mp-1194242,15,-5.091523142142857,4.17893061863252,-1.1347539659000003,662.7166871178474,0.0,6.252239379254522,12.779706578202331,2.0,1.0
Sc6Al16Pd7,mp-1194261,225,-5.358916864137932,4.956217509618707,-0.7319099475862066,484.5975059149456,0.0,8.816551001729534,8.816551001729534,3.0,-1.0
Cu3TePbO8,mp-1194267,43,-5.196367194615385,6.2530586413724105,-1.110298597692307,347.04659535235254,0.0,5.690288981347258,13.164317218372588,3.0,-1.0
NiP,mp-1194315,36,-6.025454416071428,5.920307765084555,-0.4287431453571417,352.1002014766612,0.0,4.908268,12.388619804540658,3.0,-1.0
As4Se3,mp-1194350,62,-4.238488290714286,3.8063914103078837,-0.07788714029017843,936.3088268979184,1.6249000000000002,8.563203999999999,11.010705999999999,0.0,1.0
Nb4VS8,mp-1194374,194,-7.449633371538463,4.744416514805813,-1.5055529742307705,475.35899211712837,0.0,6.687977265652523,12.271608,3.0,-1.0
Sc3Si3Pt,mp-1194390,62,-6.9086915457142855,5.638846064350507,-1.0023691050000008,487.9075965090709,0.0,4.057487999999998,11.724957,3.0,-1.0
Sr5(SnAs3)2,mp-1194401,55,-4.314862370769231,4.810904585008903,-0.8978423394871802,776.6476260968068,0.08789999999999988,4.325854,14.249651,3.0,-1.0
PdPb2Se2(ClO3)2,mp-1194403,14,-5.013632384615385,5.621664933920182,-1.3537328714390389,499.57521769059656,1.5084,5.346152,13.30912271338442,3.0,-1.0
Sc3Si3Ir,mp-1194432,62,-7.286938878571428,5.676825629726245,-0.9852560507142858,481.2888305075306,0.0,4.049714,11.654646000000001,3.0,-1.0
KCu2BiS3,mp-1194436,2,-4.136869552857143,4.779319152070868,-0.7628958103392856,655.0900951371739,0.6691000000000003,6.545182,10.738828078698996,3.0,-1.0
Fe2B7,mp-1194531,55,-7.264868539027778,4.8134170255697,-0.18756318837962974,517.1049533233706,0.0,2.888554,16.860035,3.0,-1.0
Co5B16,mp-1194572,51,-6.9431660297619056,5.10139596972121,-0.16164901507936438,304.44128363237724,0.0,2.92406,19.052141,3.0,-1.0
Al15Ni3Ge4,mp-1194643,217,-4.3899776334090905,3.895901955093527,-0.2074249556818179,742.7973201884332,0.0,9.881678946833881,9.881678946833881,3.0,-1.0
NaP15,mp-1194653,2,-5.229909534375,2.215538056242707,-0.07278827574404811,730.9037507604165,1.5192,7.159607,11.843291372969846,2.0,1.0
Cu3Hg2(Te3O8)2,mp-1194777,90,-4.9665417755555525,5.9206884481381925,-1.2741183007407402,905.005457405235,0.4474,8.848842999999997,11.557881,3.0,-1.0
Ca3(SiP2)2,mp-1194866,14,-5.164626572222222,2.5167098297836503,-0.884563113809524,792.5585309907938,0.8737000000000004,6.950593,17.282624,3.0,-1.0
CuHg(SeO3)2,mp-1194904,14,-4.7711257730000005,5.598589093228765,-1.08425549271875,614.6164574116133,0.7487999999999999,7.538922,10.573725999999999,3.0,-1.0
Na2Cu5TeS3O19,mp-1194986,11,-5.437113107,3.9040174305294317,-1.5252713663263886,758.3773436093352,0.0,7.463549,11.766523,3.0,-1.0
Ca3(Si4P7)2,mp-1195188,14,-5.410426758400002,2.4994514774020646,-0.40221420399999996,1034.4780134602013,0.9004000000000003,6.257722,13.533496,3.0,-1.0
AgP15,mp-1195243,2,-5.2386001971875,2.680358577529501,0.01339004811011879,709.3203840126255,1.2245999999999997,7.287928999999999,11.551140749178455,2.0,1.0
V4Cu13(O13F2)2,mp-1195387,2,-5.610210061702127,4.304407673799385,-1.3768735997289374,587.0907931954766,0.0,5.641513,10.985136673387089,3.0,-1.0
Sc2Si4Mo3,mp-1195505,62,-8.162989832777779,5.7426530858273175,-0.7293094572222208,566.8367690734808,0.0,6.5755419999999996,12.67324,3.0,-1.0
Sr2Al5Pd4,mp-1195613,62,-4.633563915454546,5.545300462050204,-0.7402576521212122,881.3737966947976,0.0,4.321682,18.309573999999998,3.0,-1.0
Pb2NO5,mp-1195619,61,-5.810494853125,6.605227427610122,-1.2347331442037497,1022.4922181181464,9.999999999976694e-05,5.8121599999999995,15.067878,2.0,1.0
CdCu(SeO3)2,mp-1195655,14,-4.9936058495,4.8382974470584035,-1.2448146297187492,590.14277828343,0.0006999999999997009,7.359692,10.547231,3.0,-1.0
V18P9C2,mp-1195743,51,-8.759088473103446,5.693093026701032,-0.8044869761083744,711.5334513951875,0.0,3.191362,17.073618,3.0,-1.0
NaIn3S5,mp-1195769,55,-4.0384449402777784,4.402145592724887,-1.0457057468287034,796.3213765298211,1.2398999999999996,3.851917,16.320182,3.0,-1.0
Na4Ga4Si19,mp-1195858,1,-4.486273063518519,2.6758624295813807,-0.025089461419752903,1122.5667014789728,0.4185000000000008,10.37641,10.408148401481887,3.0,-1.0
Zn3As2,mp-1196003,206,-2.74325956825,5.371146474882883,-0.12376604025000013,855.9261447415369,0.13490000000000002,10.359832356872962,10.359832356872962,3.0,-1.0
Mn3Sb5(IO3)3,mp-1196009,2,-5.90612773875,4.8816617067158585,-1.612597627654776,883.2708091338852,0.8270999999999997,8.310934,12.563399784747162,2.0,1.0
InHg7S6Cl5,mp-1196151,2,-2.479817880526316,6.071313815649804,-0.7964157557921056,1033.0874529048892,1.4549,7.58902,14.087665970602119,3.0,-1.0
AgAuF7,mp-1196161,62,-3.121839705833333,4.8422617252594975,-1.3384743191662964,600.5649583179887,0.15779999999999994,7.381701,10.335472,3.0,-1.0
NbFeSi2,mp-1196167,55,-7.949166228333333,6.407325460552667,-0.5936822383333341,637.2985790198321,0.0,7.567781,9.683974000000001,3.0,-1.0
Cu7PS6,mp-1196216,198,-4.380667536785714,4.95821437271567,-0.455976697308674,895.1194749888779,0.8795999999999999,9.637410000000001,9.637410000000001,3.0,-1.0
Sc11Ge10,mp-1196279,139,-6.340166410238098,4.9284405790265335,-0.8217169480952388,822.7255965154143,0.0,10.611825436683173,10.611825436683173,3.0,-1.0
Y3Sb,mp-1196393,86,-6.5001507134375,5.350155533516109,-0.6180470684374999,964.5807778572874,0.0,6.208108,12.464925,3.0,-1.0
Na2(ReSe2)3,mp-1196650,15,-6.143336615909091,6.859252977431357,-0.6034861746117425,1044.2302146023253,1.2789999999999997,9.843011916871838,12.224182220043554,3.0,-1.0
Sc5(Si5Rh2)2,mp-1196760,127,-6.901354138421053,4.861055933120658,-0.8291058644736833,626.6705723738976,0.0,4.063617,12.418332000000001,3.0,-1.0
Y2B6Ru,mp-1196778,55,-7.583067436111111,5.8885925392751615,-0.662658268703703,387.7371246842347,0.0,3.669687,11.534754,3.0,-1.0
Ca(Al10Cr)2,mp-1196837,227,-4.299157091956522,3.0132185721340186,-0.11553920413043435,753.5544778448268,0.0,10.214329988294287,10.214329988294287,3.0,-1.0
Li2Ca3N6,mp-1196939,51,-5.8998350986363635,2.5964906989835628,-0.6680643259951519,558.0715430451016,0.0,4.868863,14.213574,3.0,-1.0
Si,mp-1196961,191,-5.34427436925,1.98458478932632,0.08103965075000019,939.9864436293608,1.1284,10.221459979417617,10.388793,3.0,-1.0
K3Ge17,mp-1196998,227,-4.180683374,4.38847036789588,-0.08454985520000023,1023.2901480898053,0.0,11.311093618107932,11.311093618107932,3.0,-1.0
Zn3P2,mp-1197170,206,-3.08767391675,4.5835178569628505,-0.16651340617857144,748.261743894559,0.3738999999999999,9.905851447904316,9.905851447904316,3.0,-1.0
Cd3P2,mp-1197202,206,-2.74928123925,5.4077841405607865,-0.030233038678571238,980.5936590643885,0.0,10.840192399640882,10.840192399640882,3.0,-1.0
CdAg2GeS4,mp-1197203,33,-3.812248185,4.617876030338771,-0.6743745488541664,760.9592548708663,0.8351000000000002,6.687997999999999,13.955631,3.0,-1.0
Sb3O8,mp-1197211,13,-5.840651047878787,5.702159865657892,-1.626803096060606,861.8868212918019,0.0041999999999999815,8.985676,13.810557266531026,3.0,-1.0
Cu4SO10,mp-1197335,14,-5.172579939499999,3.989672530523373,-1.0174818572083324,742.9220609237094,0.0,5.854963,13.477879779103313,3.0,-1.0
Zr2S,mp-1197374,58,-8.174211582222222,6.293975990797984,-1.3180812065972236,679.1393242955232,0.0,3.571626,15.32995,3.0,-1.0
PW4Cl11,mp-1197519,12,-5.6308561765625,4.534888985486014,-1.1909716462144653,846.8163885866907,0.6118000000000001,8.856789546670791,11.533268117284448,2.0,1.0
Ag2AsS2,mp-1197575,7,-3.81298507575,5.345360682313936,-0.3589430466666671,881.7206087666285,0.5377000000000001,6.9283399999999995,13.194592000000002,3.0,-1.0
ScCrGe2,mp-1197663,55,-6.775633414375,6.1895381696765375,-0.4677403431250002,779.8366367514765,0.0,8.173324000000001,10.126885000000001,3.0,-1.0
ZrMnSi2,mp-1197723,55,-7.812161339583334,5.721132600158661,-0.6721525544971266,704.7176477132899,0.0,7.894073,9.862206,3.0,-1.0
Y2Fe3Si5,mp-1197725,128,-7.239468381499997,5.479867051108369,-0.6925162848333329,588.8077423215642,0.0,5.486546,10.359463,3.0,-1.0
Sc5Sb3,mp-1197755,62,-6.3630041375,5.212423393382613,-0.8568354818749997,751.9089506387562,0.0,7.661221,11.184277,3.0,-1.0
Sr5Mg19Ge12,mp-1197892,189,-2.930223843333333,3.548471153044233,-0.3099721356481481,829.0244925305792,0.0,4.431659,14.697220099585365,3.0,-1.0
TlCu2(AsO4)2,mp-1198006,14,-5.451757052884616,5.381115557428111,-1.3099396005769228,752.1036795189539,0.0,6.391911,11.21128,3.0,-1.0
Ge,mp-1198022,227,-4.591940520588235,4.4450021402889055,0.03108733441176525,922.6391429497627,0.6700999999999999,10.92736939537499,10.92736939537499,3.0,-1.0
Cs3Ag2Sb3S8,mp-1198053,11,-3.9233216,4.033168912009277,-0.890681488882902,1017.9816624685092,1.1336,7.396131,13.007842886456807,3.0,-1.0
Y5Si4,mp-1198133,14,-6.771309733333332,4.399426474365884,-0.7675751059259259,840.7518307937253,0.0,7.480397999999999,14.6718963183093,3.0,-1.0
Mg4AlSi3,mp-1198317,130,-3.3388366915625,2.3285644339230727,-0.03600693031249992,594.6199500417971,0.0,6.559292,13.820557,3.0,-1.0
Y2Mn3Si5,mp-1198388,128,-7.3689809915,5.2903738754954,-0.6145178177298846,606.4818501651205,0.0,5.4409849999999995,10.55772,3.0,-1.0
CuPb5Se4(ClO3)4,mp-1198565,15,-4.9872504,5.9017285575392044,-1.4253474206698076,984.3216711913344,0.0,12.90879291458911,14.387757188277538,3.0,-1.0
Cu4SO10,mp-1198566,14,-5.166442292,4.104180031762047,-1.0113442097083332,722.1943764281206,0.0,5.8381099999999995,12.937528,3.0,-1.0
Nb4FeTe4,mp-1198610,55,-7.262975898333332,6.475002160566947,-0.4353729249999997,962.081926308481,0.0,4.888799,18.469974,1.0,1.0
Ti5Ge4,mp-1198692,62,-7.126766603888887,6.0313397180939745,-0.6857031035185178,583.5594675964143,0.0,6.682099000000001,12.888518,3.0,-1.0
Sc5Ge4,mp-1198803,62,-6.41659486888889,4.738188871606462,-0.8438774305555552,722.4207351230548,0.0,7.189645,13.817429999999998,3.0,-1.0
CsAg7S4,mp-1198931,85,-3.3276932562500003,6.123551147990347,-0.4430887676748092,1102.3087198589085,0.4967000000000002,8.570303,11.341057000000001,3.0,-1.0
Mg3(TaAl9)2,mp-1198942,227,-4.2924745743478265,3.726314014792482,-0.12131108086956527,820.376612433251,0.0,10.507742532934085,10.507742532934085,3.0,-1.0
Fe2P12W,mp-1199047,60,-6.6725658895,5.092970027791337,-0.34872838502381,870.1695131864913,0.0,5.6860300000000015,13.759948999999999,3.0,-1.0
NiP,mp-1199085,62,-6.02129035125,5.974760498448418,-0.4245790805357146,498.41604707274064,0.0,4.934181,17.040467,3.0,-1.0
ScFeSi2,mp-1199097,55,-7.0912671566666665,4.6169182818983705,-0.6779921504166673,677.4856551137939,0.0,7.769319,9.747752,3.0,-1.0
Y11Sn10,mp-1199133,139,-6.070351277857143,6.169806420381832,-0.7738321923015873,1165.4089901431425,0.0,11.886240548734238,11.886240548734238,3.0,-1.0
CsCuS6,mp-1199244,2,-4.04501248125,2.8726732032748616,-0.8159439508351296,899.0739647758456,1.0911999999999995,7.5849660000000005,11.560871708804875,3.0,-1.0
Cu5(PO6)2,mp-1199380,14,-5.818359268684211,4.4302824521494175,-1.4883281793233083,428.5419345023122,0.0,4.618389,16.566791185560618,3.0,-1.0
Y3In5,mp-1199503,62,-4.56076830875,5.8833057986875845,-0.4160393100000004,949.2580070059846,0.0,6.804073,12.714438000000001,3.0,-1.0
ZrFeSi2,mp-1199521,64,-7.669515982499999,5.875308413163062,-0.702433095,689.3009241312501,0.0,5.13535,14.227225,3.0,-1.0
Ag4TeSO4,mp-1199607,198,-4.49446639875,6.023163941035384,-1.001548730229166,722.4627695759585,0.6864999999999999,8.973017,8.973017,3.0,-1.0
Ti4Si4Ni,mp-1199666,62,-7.33160331375,4.727277069971978,-0.7690076663425932,1018.6854691449588,0.0,5.098789,15.672592000000002,3.0,-1.0
Cu2(ReS2)3,mp-1199685,15,-6.769594075909091,6.459654999202948,-0.7359637035227267,902.9115865652743,0.7088000000000001,9.337777198571242,11.773204212169686,3.0,-1.0
Y5Si4,mp-1199890,62,-6.775240033888887,4.4063608325137285,-0.7715054064814816,839.4287266427533,0.0,7.4431059999999984,14.627120999999999,3.0,-1.0
Ti3As,mp-1199934,86,-7.748893276875,5.488704174203977,-0.6624946631249999,528.8903212389016,0.0,5.116829,10.166755,3.0,-1.0
Sr2Re6S11,mp-1199935,167,-7.351105622894736,7.063205190515616,-1.2327364569846475,773.5620917318103,1.3731,11.890245475955028,11.890246037946945,3.0,-1.0
Ge3Rh2S3,mp-1199965,148,-5.6645658240625,5.8541123374911255,-0.7874822108593751,589.9151809656438,0.5777999999999999,8.38681564629562,8.386816054857588,3.0,-1.0
Y11(In3Ge2)2,mp-1200167,139,-5.74483051857143,5.898999673444378,-0.6908592782539678,1102.0149406123853,0.0,11.59847845435926,11.59847845435926,3.0,-1.0
ScMnGe2,mp-1200195,55,-6.691011930833334,6.3722932707816335,-0.5059541094971275,766.6708038906136,0.0,8.107461,10.158600999999999,3.0,-1.0
Tl2Mo9S11,mp-1200344,167,-7.359078263863638,5.883237104192992,-0.9710336381534084,917.2769888265907,0.0,13.139297022471368,13.139297078688227,3.0,-1.0
Y5Mg5Al12(Fe2Si3)2,mp-1200402,123,-5.1175701396875,3.751677068855824,-0.3765525954166673,567.307788056355,0.0,3.998593,11.911207000000001,3.0,-1.0
CsAu(IO3)4,mp-1200560,2,-4.329411666666667,5.131208956332016,-0.9286716668295022,666.3132442204599,1.949,7.9819020000000025,11.220721957746704,3.0,-1.0
Hf2Sc3Si4,mp-1200760,92,-7.519884913333333,6.006081991644211,-0.7851025694444442,668.1764662304149,0.0,7.1705770000000015,12.9952,3.0,-1.0
Sc2Nb3Si4,mp-1200765,62,-8.005337708611114,5.2157842789306414,-0.8197699963888883,612.505697313189,0.0,6.7237979999999995,13.195163,3.0,-1.0
Sc3Ga5,mp-1200767,62,-4.868272884375,5.465766294143057,-0.6010372809374998,587.5421142795325,0.0,5.7750910000000015,10.911319,3.0,-1.0
Y4C7,mp-1200885,14,-8.503937053181817,4.5417106941048875,-0.2809052937878779,643.0495060949777,0.6143999999999998,3.7163739999999996,13.849762102589526,3.0,-1.0
Zr3Si,mp-1200912,86,-8.334077794375,6.029951510287509,-0.5669738168750005,664.7882544788928,0.0,5.4512089999999995,11.043208,3.0,-1.0
Y5(NiTe)2,mp-1201001,62,-6.3871140919444445,5.867922597347298,-0.8116440045370383,924.9291213106793,0.0,4.045134,15.812051,3.0,-1.0
RbNb4Br11,mp-1201070,51,-4.7286201478125,4.724933853352333,-1.0166235120312503,939.0786128028067,0.3228,7.393597,17.110914,3.0,-1.0
Y15C19,mp-1201082,114,-8.317057327058825,4.970138910566863,-0.30806026823529464,1043.598619297119,0.0,8.193894,15.543643,3.0,-1.0
Cu5Se4(ClO6)2,mp-1201155,14,-4.893891501956522,4.189747167329732,-1.0706146828649998,710.602050642006,0.0,7.613989,11.046402352015114,3.0,-1.0
Mg3(Al9Mo)2,mp-1201475,227,-4.231958075869565,3.147920857805784,-0.14880628673913066,791.7432991691796,0.0,10.384042686846872,10.384042686846872,3.0,-1.0
Bi2Pd(SeO3)4,mp-1201497,14,-5.448039936052632,5.526696882782414,-1.3484829904934217,620.2732099224148,1.7692000000000003,7.3097699999999985,10.93339437293492,3.0,-1.0
Y3(Si3Ru)4,mp-1201499,64,-7.044976787105262,5.4420712646803855,-0.6449378292105262,615.1564003549023,0.0,8.145119000000001,10.128122577670801,3.0,-1.0
KSi,mp-1201508,142,-3.3163819471875,1.8381341132238576,-0.04852546368749966,971.0832195761948,1.1834,11.432953874704607,11.432953874704607,3.0,-1.0
Mg3(Al9V)2,mp-1201511,227,-4.067404696086956,2.8192097643753065,-0.13744742521739134,778.0400750758117,0.0,10.32378587538128,10.32378587538128,3.0,-1.0
K2I2ClO6,mp-1201559,29,-4.135082965,3.47865725216708,-1.2262950637963634,884.9219427977098,0.0,6.599707,15.348198000000002,3.0,-1.0
P7Pb,mp-1201560,14,-5.204580288125,3.898113096680087,-0.0038742756249998678,722.4989835037593,0.8864000000000001,6.9134,12.645109609782633,3.0,-1.0
Tl3AsSe4,mp-1201566,62,-3.4981283615625,6.374011979984669,-0.2821629546093747,1046.1444191782114,0.8419999999999996,9.324005999999999,11.534771000000001,2.0,1.0
KGe,mp-1201758,142,-3.0686601815625,2.8370035631929755,-0.20194678056249998,1046.4325941227578,1.3282999999999998,11.720902192232304,11.720902192232304,3.0,-1.0
CsP7,mp-1201790,57,-5.0461815115625,2.540431056721728,-0.19763108630387904,914.3750410254604,1.2765999999999995,9.522252,9.812594,3.0,-1.0
Ti5As3,mp-1201836,62,-7.5615656740625,5.971298255584455,-0.8797137617708337,516.240064197441,0.0,6.728644,9.907651,3.0,-1.0
Li7Si3,mp-1201871,153,-3.234398978333333,1.4775682716045735,-0.2705587656666665,895.7629602630443,0.0,7.579872251637226,18.002744,3.0,-1.0
Cu7PSe6,mp-1201955,198,-3.988853659821429,6.171317560788215,-0.05433927286670937,1022.0018161014824,0.05389999999999962,10.072808,10.072808,3.0,-1.0
Y11(In3Si2)2,mp-1202129,139,-5.839345381190476,5.46563057355653,-0.6325577284920625,1081.1030479536557,0.0,11.521333095567806,11.521333095567806,3.0,-1.0
TlHg6Se4Br5,mp-1202157,87,-2.060406549375,6.963926903174094,-0.4134056880859376,1012.5881325670844,1.6074,11.49107598632056,11.49107598632056,3.0,-1.0
AgIO3,mp-1202188,61,-4.1320882435,5.79831119606354,-0.7133752385833333,647.8466721141118,1.8223,5.912283,17.396202,2.0,1.0
RbVSe2,mp-12024,70,-5.191059926875,3.832459350879356,-0.9269941524218756,510.11139985908926,0.05170000000000008,7.562750215228915,14.433452251672328,3.0,-1.0
Ba3(AlAs2)2,mp-1202519,62,-4.4980253547222215,4.662646415272218,-0.9552989358333336,1090.6761566186442,1.0700000000000005,7.568003,12.024797,3.0,-1.0
Cu4As3PbO12,mp-1202558,2,-5.6318242872500015,5.587182019948116,-1.3800835577500004,521.9763478620914,0.0,5.302818107339059,11.51994974825151,3.0,-1.0
Cu3SO8,mp-1202614,62,-5.271100396666667,3.893419137966083,-1.12643926109375,598.2896174805551,0.0,5.90866,12.665377000000001,3.0,-1.0
CuP4Se3I,mp-1202691,64,-4.302281840833333,3.6297011197324163,-0.1062710448685517,1008.7128134817896,1.1589,11.018292,12.132443516586466,1.0,1.0
K3Cd16,mp-1202778,126,-1.05138244,6.101150524739445,-0.09888596626315796,1042.878212268977,0.0,9.492957,11.57259,3.0,-1.0
Tc3Se4I,mp-1202969,14,-6.362485290625,5.754266620062891,-0.5387955086718748,850.4249492166495,0.8007,6.6851080000000005,12.249312,3.0,-1.0
Ga2CuSe3O10,mp-1203192,53,-5.4525052890625,4.509703867754169,-1.508768614345703,883.5178157461886,0.19940000000000024,6.693835000000001,13.292464,3.0,-1.0
Na2(CoO2)3,mp-1203207,167,-5.504063493863637,4.2260086314704095,-1.5216770728787878,1002.0598754206876,0.0,12.621810875251935,12.621810992816524,3.0,-1.0
S7N,mp-1203253,62,-4.4257270753125,1.6266205226745276,-0.3928019183443752,973.7365617071592,0.6464,8.134116,13.830841,0.0,1.0
Sn2W3Cl14,mp-1203382,173,-4.709709231052631,4.157056972651408,-1.3177388734547368,1026.8134339455685,0.7641999999999998,9.729372593340845,12.52539,2.0,1.0