pretty_formula,task_id,spacegroup.number,final_energy_per_atom,density,formation_energy_per_atom,volume,band_gap,min_abc,max_abc,Dimension,Dim
Mn6Al31Cu2,mp-1211191,63,-4.761299687820513,3.660150977775237,-0.16433807520336038,1173.3519903809365,0.0,12.55325,12.594410912620964,3.0,-1.0
Na20Zn7Sn12,mp-1211291,15,-2.319197243205128,3.685699858781045,-0.1851943749145299,2110.4695766090963,0.02280000000000016,9.463189723219653,28.08385314986391,3.0,-1.0
Li7PSe6,mp-1211446,33,-3.798946407857143,3.133723140954725,-0.95957392256909,1172.8039783143754,0.9266,7.522624,15.023995000000001,3.0,-1.0
KZr6BI14,mp-1211525,64,-4.688754730454545,5.0903058476265235,-1.0336560437348483,1548.8185494394845,0.7154000000000003,10.884673685037002,13.134978,3.0,-1.0
KZr6CI14,mp-1211572,64,-4.789651426818182,5.002118163580349,-1.0187623342272731,1576.9208480502405,0.016000000000000014,11.007411151700477,13.054333999999999,3.0,-1.0
Li7Mg8Zn9,mp-1211673,194,-1.7108607898958337,3.352636366197971,-0.14826108336805566,1647.7583312382417,0.0,10.43997116272818,17.456785,3.0,-1.0
K3Au3Br8,mp-1211803,15,-2.7463897082142856,4.674137658352493,-0.8715144381428571,957.3763906167997,0.8230999999999999,7.443207991484318,19.344189756560205,3.0,-1.0
K6Na14Tl18Cd,mp-1211804,200,-1.880956911282052,5.6427204036771395,-0.12454234422222225,1279.4573865346679,0.00199999999999978,10.856136,10.856136,3.0,-1.0
K6Na14Tl18Hg,mp-1211808,200,-1.862736747692308,5.715064838649603,-0.12219934460683735,1288.8821357149855,0.0,10.882727000000001,10.882727000000001,3.0,-1.0
K4Sn20Hg3,mp-1211830,223,-3.2999732550000003,5.405511615536394,-0.13167421859259268,1924.4844278681835,0.0,12.438599,12.438599,3.0,-1.0
K3Sn2P5S18,mp-1211845,15,-4.512934077142857,2.4097383157438843,-0.9082702392181125,1497.7534941759095,1.3182999999999998,12.267330335577705,21.308735385679565,3.0,-1.0
K3Ti2P5S18,mp-1211873,15,-5.006753844821428,2.160345072457682,-1.1245242810633502,1452.843689690634,1.1872999999999998,12.003608628129836,20.85941989831647,3.0,-1.0
K3Au3I8,mp-1211892,15,-2.500010505,4.927706250464151,-0.6896574777857138,1161.5235598504735,1.0720999999999998,7.914017685562498,20.681419786655105,3.0,-1.0
K5Ta(TlAs2)2,mp-1211936,62,-3.849787464375,4.516728762667778,-0.4523248022916662,1595.4078933733474,1.5206,7.804705999999999,18.9403,3.0,-1.0
K3Nb6SBr17,mp-1211937,15,-4.690407433333333,4.222638952078708,-1.1630086137824078,1624.2397987746156,0.5467,9.558201917036751,13.055629166094215,3.0,-1.0
K2Na4ZnSn2,mp-1211956,14,-2.0317523252777776,2.6738715550567163,-0.16971964964814826,1174.9398100677092,0.0,10.044929,11.691168070629256,3.0,-1.0
K7NaGe8,mp-1211990,205,-3.0441790040625,2.683571819704141,-0.1646997737083331,2172.6530943798325,1.3336,12.9518,12.9518,3.0,-1.0
K2Hg3Se4,mp-1212008,60,-2.4795667161111106,5.8237348411151775,-0.5778461717083331,1135.7493479297755,1.1091,6.9990179999999995,14.444749,3.0,-1.0
K4Hg3Ge20,mp-1212086,223,-3.641767873333333,5.34985396036724,-0.019056985074073992,1372.519996102072,0.0,11.113211,11.113211,3.0,-1.0
Li22(Cu3Si2)7,mp-1212343,144,-3.862962920760234,4.049580976666279,-0.2834183695906432,2313.1426880648028,0.04870000000000019,13.57267111,14.028241384615026,3.0,-1.0
K2Sb9PbSe15,mp-1212430,11,-3.933087650555557,5.287850358075783,-0.3948236398576389,1611.3692773065188,0.0,4.225346,22.29872674592054,3.0,-1.0
K4Te8O23,mp-1212432,62,-5.2775443261428565,4.658524419497223,-1.6421640687357142,2203.1274520033267,1.3387999999999995,7.409283999999999,20.003829,3.0,-1.0
HfTe7SeCl6,mp-1212434,14,-3.818233475666666,4.391760533909598,-0.95294596246025,2061.975655249977,1.015,11.709916999999999,15.665322775109425,0.0,1.0
Hg3(PS4)2,mp-1212489,198,-3.5848453861538463,4.540276666310914,-0.544727559010989,1346.2530779163867,1.6085999999999998,11.04186,11.04186,3.0,-1.0
Mg29Pd4,mp-1212554,216,-2.1704424171717167,2.7247212903609523,-0.13627124474747473,2066.9427015259334,0.0,14.298192676125257,14.298192676125257,3.0,-1.0
Ge19(PCl)4,mp-1212555,218,-4.456900264814816,4.702031555028163,-0.21593446490095192,1162.487533164693,1.6502000000000003,10.514681,10.514681,3.0,-1.0
Ge19(AsBr)4,mp-1212561,218,-4.268596278148148,5.388532751700584,-0.08260705499999951,1232.3152072704645,1.4249000000000005,10.721131,10.721131,3.0,-1.0
In3Te3Br,mp-1212594,62,-3.201960376071429,4.833961300564272,-0.4416917303571429,1109.0840894917933,1.3042000000000002,4.423242,21.04938,1.0,1.0
Hf3(Mn2Si3)2,mp-1212656,135,-8.268427746634616,8.486654731261995,-0.6476372426823611,1445.9392089393384,0.0,5.031052,16.952963,3.0,-1.0
Ge19(SbBr)4,mp-1212667,218,-4.147701342407409,5.477770858771181,-0.04024799555555531,1325.8288793337904,1.2834000000000003,10.985736,10.985736,3.0,-1.0
CsW3Br7,mp-1213292,163,-5.3963610979545455,5.482802769219303,-0.7392458650391848,1506.7484883412153,2.697,10.484768484293394,15.826776,3.0,-1.0
CsY(NbBr3)6,mp-1213375,163,-4.894413664038462,4.596466538460527,-1.1469374545999118,1602.2225711695792,0.9778000000000002,9.971260960951028,18.607671,3.0,-1.0
CsMo3I3Cl4,mp-1213398,159,-5.025780267954546,3.78671649704772,-1.1148917939519132,1654.5256630753604,2.4383,10.813648107748469,16.337982,3.0,-1.0
CuHg3As2Cl3,mp-1213415,15,-2.5548596346296297,6.2472206819428004,-0.5448554673829628,1469.6618380451087,0.1895,13.478388581710501,15.17102552225564,3.0,-1.0
CsW3I3Cl4,mp-1213488,159,-5.427158826590909,4.988859979665558,-0.9401385053155492,1606.9314960295576,2.9010000000000002,10.742228570499003,16.079701,3.0,-1.0
Cs2(PSe2)3,mp-1213727,14,-4.055572049318182,3.61307221209732,-0.5095601225580779,1530.426985847408,1.3135,10.84843,15.612661537277816,3.0,-1.0
Cs3Nb6SBr17,mp-1213734,15,-4.695130564444447,4.6173069500209385,-1.1916202532191893,1687.8238698264186,0.5779999999999998,9.718898968067217,13.213197864084414,3.0,-1.0
Cs3Re6(S4Cl3)2,mp-1213776,14,-6.2707014728260875,5.01747853248809,-1.3724234284066563,1314.0050653598385,0.14480000000000004,9.346252999999999,13.065266000000001,3.0,-1.0
CaW6NCl18,mp-1213997,176,-5.619532667884616,4.58489200453527,-1.3781423421561527,1300.4146722915152,0.0,9.084992116758935,18.192908,3.0,-1.0
Cd4AsPI3,mp-1214033,205,-2.3869236880555555,5.428784337129668,-0.34959022678571433,2291.023857382469,1.4478000000000002,13.182867000000002,13.182867000000002,3.0,-1.0
Ca4SiP4,mp-1214132,218,-4.940922580972223,2.4733025132296333,-1.0408273603373015,1677.3491261605611,1.2001000000000004,11.881588,11.881588,3.0,-1.0
Cs2CoBr4,mp-1214168,62,-3.435561811785714,3.695269958068832,-1.2288719976231524,1158.2213252693625,0.7282,7.883264,14.038473999999999,3.0,-1.0
Ca6Al43W4,mp-1214183,193,-4.453432262169812,3.7490668765254886,-0.20954800084905725,1892.1871957788169,0.0,11.097962846769898,17.739728,3.0,-1.0
Ca11AlSb9,mp-1214215,45,-3.975681408333333,4.156183862198265,-0.9771963764285708,1249.4880147650686,0.9168000000000004,12.044631410114176,12.044631410114176,3.0,-1.0
C4NCl3,mp-1214251,14,-6.31394063296875,1.8821900779124527,-0.2362971432387493,1188.6106368498813,2.1415,4.116845,21.929288253302907,0.0,1.0
CdP14Pb,mp-1214259,62,-5.07056386203125,3.401210507319413,-0.044217681406249376,1470.9945587800296,1.3228000000000009,9.914584,13.317454000000001,3.0,-1.0
Cd4As2Cl3,mp-1214272,205,-2.668026105555556,4.552707293159838,-0.8045429077533335,2059.58365365969,0.8937,12.723106,12.723106,3.0,-1.0
Ca11GaSb9,mp-1214384,45,-3.938847138333333,4.260252469239939,-0.9745278363095232,1252.2848573725705,0.8191999999999995,12.055874797485625,12.055874797485625,3.0,-1.0
Ba4Ga3Ge20,mp-1214614,223,-4.2028850998148135,5.4450563209875,-0.15767299138888835,1348.7140000447673,0.0,11.048584,11.048584,3.0,-1.0
Ba5Na(GaSb3)2,mp-1214620,62,-3.7704084878571433,5.210885704517697,-0.7890010013095237,2013.506917581207,0.0,10.862836,14.455107,3.0,-1.0
Ba3SbI3,mp-1214632,214,-3.6552792407142856,4.186607864318533,-1.589857587142857,1450.8043950056665,1.4021,12.352179223904905,12.352179223904905,3.0,-1.0
Ba6Si6CN14,mp-1214762,174,-7.310133822469134,4.553829399983786,-1.212833806666172,1313.3622192672785,0.0,5.54167,16.542708540929812,3.0,-1.0
Ba(InSb2)2,mp-1214945,62,-3.774491313214285,5.9600484664788205,-0.35472799178571435,951.7408138336244,0.2532000000000005,4.5871830000000005,19.87182,3.0,-1.0
Al(Ag3Se2)3,mp-1214959,198,-3.3522968853125,6.73797643679799,-0.21391883994140626,1450.628479532245,0.0,11.320147,11.320147,3.0,-1.0
Al11(CoSi)6,mp-1214980,14,-5.490115967282609,4.3761295480152,-0.429110531630435,1242.952731318558,0.0,8.045624,21.27219,3.0,-1.0
AgW6CCl18,mp-1214992,176,-5.5034372717307685,4.85185612086694,-1.1812290753979475,1273.897732848829,0.07159999999999966,9.090634016881825,17.799819,3.0,-1.0
AsSeS2(NF3)2,mp-1214996,14,-4.809912431875,2.7672144332621844,-1.5158078656661456,1728.293003893376,1.5211,10.225076,16.43551,0.0,1.0
Ag5Te2Br,mp-1215016,62,-2.90579445625,7.391394824093044,-0.1450059041666667,1571.6114413046093,0.2079,7.7813360000000005,14.239498999999999,3.0,-1.0
Ca10Al2Cu19,mp-1215019,191,-3.5499395705376338,4.843659076903557,-0.14890482247311798,1709.4578475481933,0.0,9.059524,14.760844099333884,3.0,-1.0
Al2(Zn13Pd3)3,mp-1215020,216,-2.3667232345,7.846326531561475,-0.30192145969999984,1507.9649499006284,0.0,12.871685355254455,12.871685355254455,3.0,-1.0
Al119Cr16Fe13,mp-1215162,8,-4.895365145067569,3.4634460588321674,-0.09616027527027037,2286.351563523397,0.0,12.205002,17.350575344727073,3.0,-1.0
Zn5Cr20(GaSe10)4,mp-1216076,82,-5.658833994347828,5.30787396924901,-0.5674063339673916,1502.9859039199032,0.0,13.0229324219395,13.0229324219395,3.0,-1.0
VCu12As3S16,mp-1216456,161,-4.61654156375,4.345063798256686,-0.6221797139062506,1185.7093707731972,0.3658999999999999,10.584243324490844,10.584243580485902,3.0,-1.0
VCu13Sn(AsS8)2,mp-1216515,9,-4.620923800454546,4.4938871501501465,-0.6430680636363637,1225.7648238444149,0.05640000000000001,10.698500243057248,10.709307032008796,3.0,-1.0
Y9Ni24Sn49,mp-1216614,12,-5.1294989117073175,7.792838641949147,-0.33205328689024394,1710.13372555618,0.0,10.319699100842234,17.027840142208348,3.0,-1.0
V20Ga2Ge3S40,mp-1216969,5,-6.498298804153848,3.8570209312296515,-1.2594835634615396,1144.6747909434505,0.0,11.896080079412794,15.358036139579987,3.0,-1.0
Tl5Sb10As3S22,mp-1216976,1,-4.2220967925,4.741234925923762,-0.6350615528437494,1110.1389249274478,1.5412999999999997,7.656098501845392,17.996606250862232,2.0,1.0
KSi,mp-1217,218,-3.33298823375,1.7429918658853183,-0.06513175024999995,2048.180748996911,1.2619000000000002,12.699582000000001,12.699582000000001,3.0,-1.0
Tl5Re6Se8Cl7,mp-1217182,161,-5.599610320961538,7.152903370352679,-0.8603919875603853,1401.7198213427994,2.016,18.454865903487594,18.454866498333303,2.0,1.0
Tl5Re6S8Cl7,mp-1217392,161,-5.8760827846153845,6.320102771447617,-1.1439172545315388,1389.2860732564636,2.349,18.299830083089322,18.299830219314195,2.0,1.0
Y20Cu6(Pb3Se14)3,mp-1217430,1,-5.690425024285713,5.900094145911398,-1.3505968687242966,2065.9345942525256,1.3074,9.216348,16.383976016532312,3.0,-1.0
Ti2Tl3P5S18,mp-1217446,9,-4.96320520375,3.2086957211124867,-0.9469127078847795,1491.3900599316198,1.3031,12.032694972201787,20.92051465665348,3.0,-1.0
Zn(W18O49)2,mp-1217459,8,-7.503936187037038,7.207007944683091,-2.1173323909814807,1901.2172587907723,0.0,14.761562800059615,19.009889794304122,3.0,-1.0
Tl3Mo15Se19,mp-1217489,11,-6.881758462567568,6.828426933598387,-0.498192990527871,1727.7912819499975,0.0,9.956733999999999,19.765857999999998,3.0,-1.0
V30Cu34O95,mp-1217808,148,-6.589088883899372,4.913451220057445,-1.7792245542688694,1760.3382626295333,0.04630000000000002,12.958803804517908,14.229835528253169,3.0,-1.0
Ta20Pd9S50,mp-1217846,12,-7.105313657721517,6.590727481583557,-1.3151366674208862,1557.0528245294531,0.0,10.39476812782594,15.47384392582092,3.0,-1.0
Ta13Al23,mp-1217883,160,-6.9226815598148175,8.348807046257809,-0.2476995242592592,1773.8868403785625,0.0,13.605575522552693,13.605575707661364,3.0,-1.0
Tl32Si8O37,mp-1218127,1,-5.245402240389611,7.375754350173259,-1.6601421122889608,1656.3004647182959,0.7955000000000001,9.958952,13.94837692005905,3.0,-1.0
Ta2Se8Br,mp-1218308,14,-5.403539229318182,5.684259549090638,-0.5562870819318181,2508.759585363498,0.5301,13.000173,16.434149520510818,3.0,-1.0
SrCd6,mp-1219283,71,-1.226116708452381,7.143265273565781,-0.19371387797619047,2125.8741373504567,0.0,14.030134923270376,14.030134923270376,3.0,-1.0
Si60Te13P32Se3,mp-1219353,47,-5.1748683040740735,3.7752159554928086,-0.08139945880849045,2010.993681811553,0.9278000000000004,10.018182000000001,20.03647,3.0,-1.0
Sn3Mo15Se19,mp-1219414,11,-6.987048099459457,6.541071769214934,-0.4698675835008438,1673.1987878693121,0.0,9.882571,19.67306,3.0,-1.0
ScTl2Mo15S19,mp-1219452,11,-7.556871922297297,5.562798171343094,-1.07775765241554,1493.767746944111,0.011099999999999888,9.482196,18.921435,3.0,-1.0
Sc19(RuBr7)4,mp-1219646,160,-5.406147364117649,4.093995460608273,-1.4208843300980392,1417.890343243704,0.03620000000000001,11.235202873759334,11.235203246923527,3.0,-1.0
Rb8Hg3Ge43,mp-1219674,155,-3.8627109009259266,5.314614431900608,-0.01927550388888872,1377.5920417028065,0.0,11.126883288087145,11.126883852338354,3.0,-1.0
Rb6CuAgO4,mp-1219689,76,-3.6649642097916666,4.130869746342962,-1.1818284611805556,1203.0843787865158,1.1146,9.144978,14.385692,3.0,-1.0
ScZn6,mp-1219746,71,-2.218633175,6.5279590387406445,-0.2342144942857147,1335.1853025122978,0.0,12.015631898312547,12.015631898312547,3.0,-1.0
Rb4Sn21Hg2,mp-1219835,40,-3.4486840811111112,5.52731657547611,-0.16236904500000074,1944.3214142801144,0.21260000000000007,12.4794864740117,12.4846,3.0,-1.0
Rb3Cu3Bi8Se15,mp-1219864,15,-3.89676155,6.372640794701468,-0.4899281406088362,1721.4945273422134,0.31899999999999995,9.64902560892083,19.126417998765927,3.0,-1.0
Rb3(Cr5Te8)4,mp-1219934,2,-5.692515135636362,5.819862689084054,-0.3000027469545454,1534.9008324924716,0.0,11.140756577916283,13.725177606046088,3.0,-1.0
Rb3(Cr5Se8)4,mp-1220065,2,-6.223414739636363,5.145310781974184,-0.6257471232272729,1233.8061798571593,0.0,10.965164,11.731586447125128,3.0,-1.0
Sc36In5Co13,mp-1220626,12,-6.512121737777778,4.5122186200608985,-0.3244284458333335,1088.8053890710096,0.010600000000000165,7.800576875439725,19.9499844392502,3.0,-1.0
Rb6Ga10Se20O61,mp-1220653,1,-5.302766532371134,3.6170064110818685,-1.539179082815722,1728.5736642639904,0.0,10.990397999999999,12.953978120271588,3.0,-1.0
Nb4P2S21,mp-1220713,5,-5.662121158518517,2.7011522458130295,-1.0634330441765871,1360.9850160922933,1.1923999999999997,13.194044293436185,14.09341285342092,2.0,1.0
Na6B18Se17,mp-1220895,9,-5.021521781829268,3.2153480713053817,-0.4471934819474079,1729.930806627098,2.1085000000000003,11.370349788059515,12.358370906514699,3.0,-1.0
NaAl6Sb7(TeCl3)8,mp-1220960,1,-3.7074320189130434,3.199015087954641,-1.3611288285124636,1509.9315895222721,1.4673,11.960742999999999,12.748294425587373,1.0,1.0
NaSi68,mp-1220969,160,-5.313750713913043,2.0098832293264213,0.05198849734299578,1596.8570313593698,0.043099999999999916,18.036837656370253,18.036838292923875,3.0,-1.0
Nb12I21Br,mp-1221014,4,-5.0217122926470585,5.209905579314193,-0.4670990004411773,2460.4308587574965,0.09379999999999987,11.490997,15.588227319005359,3.0,-1.0
Rb4Cu8(GeS4)3,mp-1221082,120,-4.237220823888888,3.4376454603677566,-0.8201559491666662,1403.6713970709745,0.8026,12.694329165876946,12.694329165876946,3.0,-1.0
Na7Sn12,mp-1221178,2,-3.1848412386842107,4.465754282275813,-0.16813451359649145,2358.1225610669235,0.32260000000000044,9.522039,17.98895738416796,3.0,-1.0
Na2Sr3As4,mp-1221310,14,-3.789099528055557,4.084972808709006,-0.8630748821296292,989.4617578496524,0.5672999999999999,7.567562,17.790351514566538,3.0,-1.0
Na3Mo15Se19,mp-1221553,11,-6.891364888108106,5.980351544006416,-0.5926913698521962,1670.6091918931402,0.0,9.814100999999999,19.821907999999997,3.0,-1.0
Na10Sn4Au13,mp-1222050,71,-3.022699438148148,9.020381107719805,-0.3654672304938271,1803.304077782989,0.0,13.281144580957283,13.281144580957283,3.0,-1.0
Na20Zn8Sn11,mp-1222199,5,-2.2425250547435898,3.680899414424968,-0.17903060299145304,2065.1313114133727,0.023199999999999662,9.389518276979123,27.8432200548322,3.0,-1.0
KSnAuSe3,mp-1223442,103,-3.7360669691666666,5.2879189876975286,-0.5891358400052079,1486.3556362407764,1.4172999999999998,8.557512,20.296806,3.0,-1.0
KSnAuS3,mp-1223460,103,-4.070536756666667,4.4545465467068945,-0.9350664328958326,1344.8786806595833,1.6528,8.293192999999999,19.554178,3.0,-1.0
Li3Mo15Se19,mp-1223482,11,-6.935281560540543,6.1131496315135125,-0.5884239355278712,1608.1616192296176,0.0,9.616275,19.846788,3.0,-1.0
KBi3S5,mp-1223584,62,-4.2624482575,4.496294537613911,-0.9129536784583334,1220.7479061009908,1.4224,4.112696,17.471478,3.0,-1.0
KNb2(PS6)2,mp-1223649,73,-5.449049837647059,2.5515988825804485,-1.1069640051554623,1748.3658814586313,0.042400000000000215,13.246628785501654,13.246628785501654,3.0,-1.0
KAgSnSe3,mp-1223690,103,-3.6604450379166655,4.570593800396232,-0.5870681648663189,1460.6674543713204,1.2891,8.442936999999999,20.491052,3.0,-1.0
K9In9GeSb22,mp-1223750,1,-3.440336042682927,4.486265042052735,-0.2642433785853657,1531.1170793793156,0.4722,11.547435,13.634056754203279,3.0,-1.0
K7Na17(ZnSn2)4,mp-1223881,1,-2.0356191511111112,2.700776905088042,-0.16791277354629644,1153.3308384744796,0.011300000000000088,9.990149,11.611000077165878,3.0,-1.0
Ca11Sb10,mp-12241,139,-3.9605678173809515,4.355374629547688,-0.943824432619047,1264.614199032198,0.0,12.175836301981153,12.175836301981153,3.0,-1.0
K4Zn2Sn21,mp-1224111,40,-3.527081471851852,4.978431665528558,-0.15070769544444446,1854.6000719255587,0.42079999999999984,12.284949972997206,12.288633,3.0,-1.0
K2Bi8Se13,mp-1224244,11,-3.9250606956521743,6.489299609706642,-0.4994988876725549,1420.9606195996994,0.13649999999999984,4.246847,18.834153275098537,3.0,-1.0
Mo15Pb3Se19,mp-1224355,11,-6.978868013783784,6.959499210630607,-0.4857624803927365,1699.283182556123,0.0,9.9163,19.724186,3.0,-1.0
KIn7S8,mp-1224365,6,-3.94883975625,4.283831563707916,-0.9390832567500008,1278.4145202576165,1.1846000000000003,3.989465,19.32866776266789,3.0,-1.0
InSnBr3,mp-1224379,42,-3.0295765902499996,4.942728266965807,-0.6951695492500001,1271.902423816932,1.3435,11.935474162090502,12.549992847671465,3.0,-1.0
Hg15(As2Cl3)4,mp-1224429,14,-2.191182344571428,6.802063540135652,-0.5662005035462857,1969.4164805174105,1.3083,12.533664,12.535822169046035,3.0,-1.0
Hg,mp-1224431,40,-0.26305773382352937,7.059681036103451,0.04062263117647062,1604.1767338552092,0.7993000000000001,10.518507000000001,13.266921576056145,3.0,-1.0
K4Sn21Hg2,mp-1224491,40,-3.4481376770370367,5.244442779335196,-0.14258340025925942,1931.7386951256217,0.19419999999999948,12.45161454233924,12.459398,3.0,-1.0
K15Si92,mp-1224497,47,-4.8315061806542055,2.37772246482716,-0.011086797056074158,2214.082733603167,0.0,10.344886,20.682185999999998,3.0,-1.0
K10NbInAs6,mp-1224638,7,-3.3453900247222226,2.893533995818605,-0.4614073208333333,1203.1228655755688,0.9131999999999998,8.407108000000001,17.81294817867646,3.0,-1.0
In6Te10Pb,mp-1224649,5,-3.3654808729411765,5.493159793978869,-0.3269068288235292,1313.2223806152285,0.9293,10.917141068924822,10.968713174868329,3.0,-1.0
K16Tl22Pd,mp-1224669,155,-2.064463123076924,5.380208671753272,-0.14388285328205122,1613.6929184708533,0.0,18.48997149382586,18.489971615421208,3.0,-1.0
K(Nb2Cl5)4,mp-1224709,6,-5.416016304597702,3.1760521358074114,-1.7264349666045975,2339.2658880889608,0.0,9.440189,18.142941,3.0,-1.0
In14Sn5S26,mp-1224719,8,-4.1034469217777785,4.8565035055210855,-0.7952431876944445,1037.6240057007424,0.6493000000000002,13.882240836148787,19.259315355060785,3.0,-1.0
In4Bi3S10,mp-1224757,1,-4.206872995147059,5.761206118011645,-0.8300061411029418,1621.987658214985,0.9284,7.7595740000000015,18.01981976953435,3.0,-1.0
Ga6AgSb7(TeCl3)8,mp-1225073,1,-3.3738990967391307,3.5802896029298137,-1.0881823884762318,1507.4426048877372,1.4202,11.976258999999999,12.697899610610369,1.0,1.0
In23Se28,mp-1225539,8,-3.625036295098038,5.747714338397706,-0.4647569389338234,1401.6749879804768,0.0,10.45237271212331,18.695373858364558,3.0,-1.0