pretty_formula,task_id,spacegroup.number,final_energy_per_atom,density,formation_energy_per_atom,volume,band_gap,min_abc,max_abc,Dimension,Dim
SrLiGaN2,mp-568385,12,-5.244345732666667,4.781051144861461,-0.7380569331186658,400.72862903648286,1.8404,5.9778682467589555,12.745006666587901,3.0,-1.0
BiI,mp-568388,12,-3.0014338875,6.1036046117317,-0.2944104250000001,365.5216771039295,0.8340999999999998,8.114620436225284,11.039652792436726,1.0,1.0
MoCl3,mp-568394,15,-4.878935090625,3.2634824220629266,-1.22713610057,411.7385653595974,0.5585,5.9133803798084905,13.103690848217154,2.0,1.0
Sc(AlC)3,mp-568400,186,-6.81072147,3.268639916700072,-0.3465016564285709,164.5304845267671,0.11960000000000015,3.3642603248150995,16.785589,3.0,-1.0
Ba(CuP2)2,mp-568474,70,-5.00448828,4.822730141556817,-0.4658414777551018,267.40482170351646,0.0,5.812840354783968,10.828472093258217,3.0,-1.0
Ba6Mg23,mp-568512,225,-1.7403669262068966,2.597055465336217,-0.07415085275862053,884.2658030840181,0.0,10.773726405531653,10.773726405531653,3.0,-1.0
Ag5Hg4P8Cl5,mp-568540,12,-3.341526325454545,5.809155511485512,-0.3891152685547623,505.02478591961113,1.0502000000000002,6.360980651671329,9.205376975038558,3.0,-1.0
Na2SnSe3,mp-568543,14,-3.6293086108333337,3.803238322908224,-0.7748734906163192,701.3201383872424,1.3282999999999998,6.253081,16.538202,3.0,-1.0
CsSnI3,mp-568570,62,-2.840987663,4.2806418988682715,-0.9455852485862069,981.1675939547948,0.6097000000000001,8.733171,12.663082000000001,3.0,-1.0
In5Se5Cl,mp-568603,11,-3.5636944495454546,5.437037346822732,-0.6098919936344319,613.477775259659,0.9511999999999996,4.177033,15.656103204431586,2.0,1.0
Nb2Br5,mp-568616,63,-4.887409597142857,3.943202497713808,-0.8320891999999996,492.9840227603476,0.0,6.059831,9.332627471114444,1.0,1.0
TiCr2,mp-568636,194,-9.16968160625,6.2345655382159375,-0.10248595402777738,323.5742829897749,0.0,4.869061666925363,15.759876,3.0,-1.0
Y3CuSiSe7,mp-568638,173,-5.761611612916668,5.390983811800238,-1.3120020817838547,561.2577602565459,1.6207000000000005,6.032965,10.364550347454584,3.0,-1.0
RbAuI3,mp-568666,12,-2.447928973,5.0331621863947325,-0.6826382815000003,437.5709556648733,0.8883,7.998347579917054,8.880589881648008,3.0,-1.0
Mo(SeCl6)2,mp-568726,43,-3.152896978333333,2.489920123614146,-0.9606517979205,906.0511902267875,0.0,9.003146575899171,12.945101420842905,0.0,1.0
Rb2Te,mp-568745,62,-2.642136445,3.7145956062753496,-0.9406800866666666,533.8185677422289,1.3719,6.127743,10.67119,3.0,-1.0
TcBr3,mp-568753,59,-4.205564408125,4.231081253122884,-0.3877145256250003,530.1566533100395,0.08399999999999996,6.0567410000000015,12.3059,1.0,1.0
CuTeBr,mp-568778,70,-3.253326610833333,5.240968494298675,-0.29351523083333336,687.0319705093498,0.8077000000000001,11.733845346133425,16.308600913335024,2.0,1.0
KBi(PSe3)2,mp-568802,4,-4.076311608,4.4807459855048135,-0.3960642234205359,580.9334646620306,1.7796000000000003,7.091997,10.454203343345585,3.0,-1.0
Ba5Al5Pb,mp-568809,187,-3.243107193636364,4.695459101387768,-0.3307998872727273,363.81265267562486,0.0,6.117989341734831,11.223536,3.0,-1.0
Hg4I7,mp-568838,115,-1.3064593945454546,4.712348631826353,-0.2262039613636364,595.7663908065457,0.0,6.583887,9.512547,3.0,-1.0
RbCuCl3,mp-568857,15,-3.2038756630000003,3.1611449774292484,-1.4356169284560003,536.5859699252209,0.0,6.992945,12.565442494125426,3.0,-1.0
Ba5Ga5Sn,mp-568967,187,-3.103978434545455,5.444266515723228,-0.4908053875000004,351.9658076546578,0.0,6.0757389722103765,11.009601,3.0,-1.0
Li7NiN4,mp-568989,218,-4.615400672291667,2.4353544054744867,-0.3693602141961113,890.8041797858168,0.0,9.621898,9.621898,3.0,-1.0
MoCl4,mp-569005,162,-4.3983340323333335,2.677096666306539,-1.2261246449413334,884.8312930895354,0.0,6.388172,12.646682965113106,0.0,1.0
PdCl2,mp-569008,58,-3.409668858333333,3.3717486048985696,-0.8471409371733332,174.66115361988534,1.3653,3.410757,11.579049000000001,1.0,1.0
MgCuAs,mp-569015,62,-3.8069462525,5.390579180843314,-0.3540778775,401.1298262458994,0.0,3.9902279999999997,13.553694,3.0,-1.0
Y3H2,mp-569037,194,-5.639704828999999,4.3112947284535705,-0.4639274964480002,207.010834156764,0.0,3.7027467796296833,17.4347,2.0,1.0
AgSe3I,mp-569052,53,-3.066141805,4.944996330259913,-0.0972811947395833,633.5274140517166,1.5898000000000003,5.101597,15.050089999999999,3.0,-1.0
Cs2PSe5,mp-569060,2,-3.731776335,3.738145290471424,-0.6463203357690309,614.4241414851897,1.5158,7.6149559999999985,10.452909363578064,3.0,-1.0
Rb3Bi,mp-569095,194,-2.0270548275,3.6006755178044667,-0.3191456956250003,429.24611064868895,0.0,6.538842620652144,11.592417,3.0,-1.0
Mg3Hg,mp-569103,155,-1.3974865520833333,5.072223845551737,-0.12135642333333314,537.2385973959679,0.0,10.161517547064019,10.161517636505533,3.0,-1.0
Li2ZnGe,mp-569115,164,-2.76477243625,3.7877997083320643,-0.3396181366666666,266.4210152111744,0.0,4.3120156557332905,16.545396,3.0,-1.0
Sc2B6Rh,mp-569116,55,-7.402377573055554,4.938521759023951,-0.7239779391666659,346.5759570919977,0.0,3.465928,11.198488000000001,3.0,-1.0
AgBi(PSe3)2,mp-569126,148,-4.036609748,4.996191648875751,-0.18414665778720266,566.7127483749093,1.3564999999999996,14.861635384210784,14.861635414442716,2.0,1.0
TlCuPSe3,mp-569129,14,-3.9705579325,5.6631012013540625,-0.24357794176711306,628.4109529674961,1.5273000000000003,7.666874000000001,11.468435115870776,3.0,-1.0
K(WCl3)3,mp-569185,162,-5.303978592307692,4.481465024390158,-1.360175734795384,674.1476620395888,0.0,8.556955,9.537895796783689,3.0,-1.0
Ba3Al3Ga2,mp-569218,194,-3.224402315,4.56404530519978,-0.3431734418750003,460.1522125332632,0.0,6.003224442878094,14.743539000000002,3.0,-1.0
Ca2CdSb2,mp-569267,62,-3.4237151455,4.788552792560198,-0.7852967455000002,604.8921511830995,0.6476999999999995,4.658089,17.680749,3.0,-1.0
Cs2Se,mp-569272,43,-2.7351650716666662,3.694874824371707,-0.972926331068606,309.8917186642401,1.7482,5.915990469162793,11.844384513402462,3.0,-1.0
Ca5(CoN2)2,mp-569383,130,-5.8383692200000015,3.1496902131977733,-0.7425034254109086,789.2990318380174,0.0,8.097424,12.037819,3.0,-1.0
C,mp-569416,166,-9.19800999625,1.5831384782625817,0.028770703750000237,100.78328252927292,1.5470000000000002,19.141180726217204,19.141181279926407,2.0,1.0
CdHgAsBr,mp-569454,51,-2.251310735,5.723379749222309,-0.3706569675,542.9269974966863,1.9725,4.804863,11.064237,2.0,1.0
MnP4,mp-569522,2,-6.524260253,4.056810497025031,-0.3612902697881774,439.20119642538793,0.5244,5.111238,16.351184565161663,3.0,-1.0
Sr6FeC2N7,mp-569547,18,-6.6097192978125,4.083163808876725,-0.8142344782287498,572.3064946209478,0.0,3.859715,14.879570000000001,3.0,-1.0
NbI5,mp-569578,2,-3.3843401783333333,4.301490815757599,-0.4307788258333331,561.6303165903554,0.9944,7.673431816385078,10.739259519583078,0.0,1.0
PbI2,mp-569595,166,-2.9195831033333337,5.340062470782126,-0.6660256700000003,286.70951289816423,2.4295,15.38236497546671,15.382365178869732,2.0,1.0
BaCa4(CuN2)2,mp-569603,130,-5.305905286590909,3.7190320124075376,-0.7650259738200001,858.6289182876634,0.2397,8.282992,12.515005,3.0,-1.0
Ca3Zn2(CuP2)2,mp-569617,164,-4.279766247272727,4.004727696407096,-0.7899622794805197,208.16782447171119,0.07010000000000005,4.042162018868861,14.711452,3.0,-1.0
Tl2Hg2PdCl8,mp-569675,12,-2.6707534861538464,5.148364902405486,-1.0906491543138466,387.0415770105477,1.7020999999999995,6.759556169130117,10.149741772576188,0.0,1.0
CuHgSeCl,mp-569687,55,-2.780829610625,6.298687150328879,-0.4926672382759376,399.19137948582926,1.0995,4.251608999999998,13.087809,3.0,-1.0
BiSeBr,mp-569707,62,-3.5558122033333333,6.215972666966728,-0.5481880941145829,393.0647892813887,1.7263,4.1668449999999995,11.016514,1.0,1.0
CuBi(PSe3)2,mp-569715,163,-4.135873188,4.8100006276592335,-0.15674503112053556,558.0473308198067,0.6922000000000001,6.612340503628425,14.73771,2.0,1.0
TeI,mp-569766,12,-2.4155252875,4.922312321961768,-0.08186851500000003,343.42771235685933,0.7345000000000002,8.483640561598541,12.497183519860544,1.0,1.0
In5AgTe8,mp-569813,111,-3.286577727857144,5.499755749837344,-0.30533614976190443,514.1131062333304,0.2941999999999996,6.326226,12.846039999999999,3.0,-1.0
Te2WCl6,mp-569824,2,-4.0062083883333335,3.767297521711024,-1.0320045893955558,574.5602064779528,0.0,6.699739999999999,11.54732166757045,0.0,1.0
Zr3(Al2C3)2,mp-569831,166,-7.8035406023076925,4.696555609501403,-0.4199952630769231,160.39926387817408,0.0,16.5489387877418,16.54893882174446,3.0,-1.0
CsNb4Br11,mp-569853,51,-4.735143339375,4.83922337960364,-1.0284674348706897,949.4557528325752,0.3032000000000004,7.433483,17.089456,3.0,-1.0
K2P3,mp-569857,70,-4.1288403955,1.9125772018923144,-0.4367092998428568,594.2723450135611,1.0897,8.572982137275277,12.060452816378827,3.0,-1.0
Sr8Mn2FeN8,mp-569961,12,-6.276682782631579,4.4420032505401705,-0.8067331327201932,365.8770822340133,0.0,7.56477980215842,9.805219998057003,3.0,-1.0
ZrHg3(SeBr3)2,mp-569970,14,-2.9824591129166667,5.6798978203147925,-0.7931154528906251,777.8584371294475,1.9372,7.187285,13.895667339590895,3.0,-1.0
NbI4,mp-570044,36,-3.7031923780000002,4.854423341760835,-0.4637212779999999,821.6786414918198,0.4884,8.061977490348445,14.897429,1.0,1.0
Al5C3N,mp-570079,186,-6.4186280061111125,2.9680475603197136,-0.3785509574866658,206.94471406925965,0.9371000000000008,3.308710074689833,21.827614999999998,3.0,-1.0
Li2TeSe3,mp-570080,14,-3.5403983254166667,4.44752689080538,-0.6322514760329861,565.0644933621853,0.6149,5.634056,12.098359,3.0,-1.0
Hg3AsSe4I,mp-570084,186,-2.54996175,6.448460575018326,-0.2079819693750002,576.5305704116487,1.2214,7.889103586821508,10.696369,2.0,1.0
Hg2TeBr3,mp-570125,14,-1.8405730604166664,6.148940534398734,-0.39699951375,830.1338945990311,1.9471,7.857817,12.3206376833474,2.0,1.0
Sc6Si11Ni18,mp-570147,71,-6.527836162000001,6.176236311273339,-0.7645296165714285,879.2546875776458,0.0,11.565799698551116,11.565799698551116,3.0,-1.0
ZrI3,mp-570188,59,-4.24258390375,4.111605829836228,-0.9626492850000004,762.3984776052682,0.19700000000000006,6.660409,14.087710999999999,1.0,1.0
MnSbSe2I,mp-570268,12,-4.71018155,5.496405644642396,-0.3488728938685348,278.8644855643095,0.6097999999999999,7.032785207657206,10.198483465149607,3.0,-1.0
NbSeCl3,mp-570270,13,-4.9295427865,3.26091655731831,-1.4577888969247503,566.7168781400159,0.9018,6.648759,12.138078099001506,1.0,1.0
InSb2Se4Br,mp-570321,12,-3.73570257375,5.329025714305604,-0.4069202411718749,469.948049625062,1.1209000000000002,10.852155489484103,12.436728287102039,2.0,1.0
Tl4CdI6,mp-570339,128,-2.4158387586363634,6.373296091594522,-0.6418771795454545,881.3611087453537,2.1712,9.404738,9.964614,3.0,-1.0
AgAuCl4,mp-570340,15,-2.6169728966666668,4.331657030232633,-0.7633326549511112,342.4437362970696,0.8857999999999999,6.970062023540393,13.206997967200346,2.0,1.0
Na2Sn3Au,mp-570351,194,-3.263939855833333,6.258710187075351,-0.2752895994444445,635.7790987186778,0.0,7.606514,9.824149592458069,3.0,-1.0
Ca5Ir,mp-570356,62,-3.38279816125,3.179360136867892,-0.23839319124999986,820.2144246079354,0.0,6.799129,15.778806,2.0,1.0
Sr5In3,mp-570362,140,-2.42702554625,4.042809352282012,-0.33921836416666684,642.8507384304926,0.0,10.346289696621923,10.346289696621923,3.0,-1.0
SnPSe3,mp-570370,7,-4.2244798139999995,4.699903888027243,-0.242361384120536,546.3126428334688,1.4330000000000005,6.995850999999999,12.005897133689759,3.0,-1.0
Ba5Al2Ge7,mp-570390,12,-4.059258333928572,5.0027287248705425,-0.5273154199999998,829.2046435029853,0.0,6.807666445957088,18.689787620989705,3.0,-1.0
Tl3AsS4,mp-5704,62,-3.832271481875,5.615474924736262,-0.6277668803125,965.5819785250619,1.7009000000000003,9.278871,11.135044,1.0,1.0
Ba7Al10,mp-570400,166,-3.2241964311764706,3.910774230010871,-0.23075207176470605,522.7345808734972,0.0,16.90071426985336,16.900714384237197,3.0,-1.0
AgTe3I,mp-570431,53,-2.8517392495,5.494464735067228,-0.09444496783333314,746.5721189941695,1.2460999999999998,5.147745,16.469045,3.0,-1.0
Ba(AlGe)2,mp-570482,62,-4.1278142760000005,4.5286153668230735,-0.39657863600000026,493.6500157939008,0.0,4.324749,11.089052,3.0,-1.0
ZrI2,mp-570506,31,-4.75792829,5.3553603770736125,-0.8926863366666667,427.93809252249224,0.2976000000000001,3.7764089999999997,16.364335999999998,2.0,1.0
FeP4,mp-570553,15,-6.396424983499999,4.088310123469627,-0.3717957183571429,292.0183278887468,0.8966000000000003,5.787979950758038,11.093967289038897,3.0,-1.0
Na3Hg2,mp-570560,136,-1.078989053,5.3720468110539805,-0.16872557699999985,581.3063960625452,0.0,7.069807000000001,9.067734,3.0,-1.0
SeBr,mp-570589,41,-2.65335850375,3.6389186715224646,-0.0869394949218747,289.9761188297981,1.5484,4.469745559071678,15.112225,0.0,1.0
CdBiSe2Br,mp-570590,62,-3.2420122620000003,6.500449149379192,-0.5536775489375,571.4060656458046,1.9348,4.171124,13.421285000000001,3.0,-1.0
SnPSe3,mp-5706,14,-4.2212629060000015,4.718612818754472,-0.2391444761205357,544.1465559382783,1.3037,6.9595410000000015,11.993902183696516,3.0,-1.0
SiC,mp-570641,160,-7.52149894125,3.1692701027402013,-0.1954515812499995,168.06723154240382,2.0203000000000007,20.28236369524679,20.282363907245255,3.0,-1.0
Ba5Al5Sn,mp-570677,187,-3.286204660909091,4.325592625294227,-0.3469041922727275,360.95084869351393,0.0,6.1024919147906305,11.191879,3.0,-1.0
CsTiCu3Se4,mp-570706,11,-4.640501645,4.999350934217609,-0.7435949439599293,456.5417546936225,1.2738999999999994,5.825407,10.395280785985774,3.0,-1.0
YMg4Cu,mp-570765,65,-2.95219803875,3.1038625506478565,-0.12439837486111098,534.2889435213677,0.0,4.046533999999999,11.968541817024246,3.0,-1.0
SrSi,mp-570777,71,-3.969684293,3.413691103403543,-0.4122866563333332,562.8321284808809,0.0,11.356665398088426,11.356665398088426,3.0,-1.0
Ba(BSe3)2,mp-570823,64,-4.6033778011111135,4.423299417349148,-0.5752418858217594,475.0472048844748,1.9798,6.932549757766907,10.640585,3.0,-1.0
CdHg4(AsI2)2,mp-570838,4,-1.871541718181818,6.390187402638423,-0.2759145827272727,817.1130597903377,0.4617,8.223313000000001,13.428126,3.0,-1.0
LiCa2InGe2,mp-570850,62,-3.5486282320833333,4.190177327733137,-0.5623178876388888,550.3641646976188,0.010900000000000354,4.458449,16.960511999999998,3.0,-1.0
Nb(Te2I3)2,mp-570873,2,-3.1709003068181816,4.497383607444868,-0.278301720454545,1007.7827429862227,0.8167,8.324703999999999,12.347920849615376,0.0,1.0
CaCuSn,mp-570879,44,-3.814948119444445,5.477613680536137,-0.4434886511111118,404.4034293385675,0.0,11.931416977062408,11.931416977062408,3.0,-1.0
RuCl3,mp-570880,59,-4.24782727625,3.2560649510375286,-0.9888416299449999,423.14138473928915,0.0,5.675559,11.308117,1.0,1.0
K2Ag2SnSe4,mp-570887,13,-3.5131255027777777,4.57994335662116,-0.637666873189815,528.2486645190307,0.8472000000000002,6.017348999999999,12.477919737099011,3.0,-1.0
CsSiTe3,mp-570957,9,-3.6199163844999998,4.337628020045346,-0.4697925480862068,832.7003749704762,1.2613,8.359382971191115,13.681719828582553,3.0,-1.0
RuCl3,mp-570997,151,-4.220616557916666,3.262634512399371,-0.9616309116116668,633.4340363348837,0.0,6.059941378661184,19.917457000000002,2.0,1.0
K5InPb8,mp-571021,166,-2.929021744285714,5.819818015027112,-0.2143892425000001,561.4936061309211,0.0,13.604661866738839,13.604662031859554,3.0,-1.0
Sr5(GeN3)2,mp-571046,15,-5.837699004230768,4.7683931748064925,-0.8062916886625632,464.8430929703949,1.7437999999999998,6.192986860797462,13.674042123699124,3.0,-1.0
K3(Mg10In7)2,mp-571068,221,-2.088847934864865,3.8276055185270335,-0.0926217170000001,959.1368885721221,0.0,9.861891,9.861891,3.0,-1.0
In5AgSe8,mp-571103,111,-3.673217331428571,5.200053967774661,-0.4904840118154762,419.48555995690964,0.5832999999999999,5.900508,12.048645,3.0,-1.0
Cs2Zr7CI18,mp-571150,148,-4.577626144642856,4.996147017496417,-1.0674933973522174,1063.787286808124,0.1419999999999999,11.871624482139122,11.871624535422773,3.0,-1.0
Rb3AgSn3Se8,mp-571164,125,-3.7181582866666663,4.403606217891069,-0.6668139128611111,1019.7025832642572,1.173,8.615378999999999,13.738039,3.0,-1.0
InBi2Se4Br,mp-571169,12,-3.74317497375,6.4412845798976175,-0.4741343736718751,478.7394081114564,1.3432000000000004,10.832164149377027,12.349300656437919,2.0,1.0
Rb(WCl3)3,mp-571180,147,-5.300307433076923,4.591718870896346,-1.3664941812953844,691.4983234987137,0.0,8.632943,9.617247928557159,3.0,-1.0
NaHf2CuSe5,mp-571189,63,-5.909923975555558,6.459073784941558,-1.1535024227835653,431.03891715300085,0.4815999999999998,7.227232062310231,16.29189,3.0,-1.0
ZnTe,mp-571195,144,-2.6709912300000003,5.424327600796479,-0.4694689600000004,177.2564315575293,1.0679000000000003,4.3726338913557585,10.704962,3.0,-1.0
Cd2GeAs4,mp-5712,62,-3.6681300582142855,5.503841244134097,-0.0816613446428569,720.6517795654089,0.06729999999999993,7.3747690000000015,12.933733,3.0,-1.0
YGaI,mp-571210,164,-4.7318865400000005,5.048622771821245,-1.059026796388889,187.82913840281142,0.0,4.208972280750373,12.242785000000001,2.0,1.0
ZrI2,mp-571279,11,-4.757812388333334,5.390175004369667,-0.8925704350000002,425.17408111564947,0.2466,3.7753339999999995,16.32497483166513,2.0,1.0
KTa(AgSe2)2,mp-571288,40,-4.749476146875,4.85671167158311,-0.6723593350885411,513.9686033788577,1.8325,8.375799,10.42076554914988,3.0,-1.0
RbCuCl3,mp-571305,5,-3.2046919995000005,3.1469929355984063,-1.4364332649560003,538.9989995212917,0.0,7.048828326233871,12.588857745021233,3.0,-1.0
Hg3(SeI)2,mp-571404,12,-1.823764005,6.6841868194685174,-0.2593512506696428,1007.1260000847833,1.1259,11.185617341224622,11.262948904795758,3.0,-1.0
Zr2Al4C5,mp-571419,166,-7.4580545490909085,4.336533573674747,-0.3479083600000001,134.18524272028327,0.0,13.873837639945268,13.873837714677222,3.0,-1.0
CuSe,mp-571486,63,-3.9209324666666654,5.8097789009133205,-0.1233733928385418,244.3846324558403,0.0,4.030373204044509,17.434923,3.0,-1.0
Sr8In4Cu3N5,mp-571541,71,-4.4308794764999995,5.142544831034947,-0.6017511817616665,458.81287361452627,0.0,11.553378427051284,11.553378427051284,3.0,-1.0
KTiPSe5,mp-571544,12,-4.747976540625,3.546653304095184,-0.7606347639529396,480.1276980976595,0.9207000000000004,6.909341364297541,10.114785205050328,3.0,-1.0
Li2ZnSi,mp-571566,164,-2.911171710625,2.8231572667716534,-0.2854458697916669,252.62903371822205,0.0,4.23328940972868,16.277835999999994,3.0,-1.0
K3AgSn3Se8,mp-571594,125,-3.742571522,4.258609442078376,-0.6652541732944447,945.9375163090332,1.124,8.314900999999999,13.681958999999999,3.0,-1.0
Sr2LiInGe2,mp-571617,62,-3.4100179833333333,4.747954422172653,-0.5290805144444443,618.7267126298248,0.0,4.661249,17.578376000000002,3.0,-1.0
CrCu(PS3)2,mp-572465,14,-5.2059706635000005,2.8189596294957946,-0.6642941570892859,871.5265861415346,0.13359999999999994,5.985366,14.530433245846085,2.0,1.0
TlIn3S5,mp-572596,12,-4.008640201666667,5.262380473577384,-0.8995675900694451,447.5509551704377,1.7594000000000003,10.495774744485802,13.037886457362635,3.0,-1.0
Cu3BiTe2ClO8,mp-572778,62,-5.106128156666667,5.7854309353720055,-1.2598994295506667,939.4381655385444,0.05440000000000023,6.4487830000000015,14.532694000000001,3.0,-1.0
CsBSe3,mp-573358,14,-4.1858188815,4.107083964907858,-0.5733131663257901,615.5172695657093,1.6938000000000002,6.265875,13.127532999999998,3.0,-1.0
CsSb,mp-573514,19,-2.95085959375,4.258995196340846,-0.4386577877155173,794.3318314265599,0.5564,7.5591149999999985,13.495376,3.0,-1.0
Sr8Fe3N8,mp-573523,12,-6.112856463684211,4.476869852237434,-0.7157177180196492,363.7003778848253,0.0,7.491063222194429,9.796398636172018,3.0,-1.0
K2TcI6,mp-573568,14,-3.1369880377777783,4.137562338807993,-0.7230443162222223,752.5978782558478,0.7361,8.007367,14.080574956070294,3.0,-1.0
Cs,mp-573579,64,-0.84142637,1.8653542824309688,0.05397600206896558,946.4998563445577,0.0,10.132292571712927,10.44175,3.0,-1.0
Na2TeSe3,mp-573581,15,-3.3421711991666663,3.922703981658733,-0.6321145664496525,695.0145636523694,1.3504000000000005,11.414213546548224,12.170951023899653,3.0,-1.0
Cs3BAs2,mp-573658,15,-3.4613614175,3.788099396864468,-0.34738880132662797,490.4077549889244,1.7692,7.1542014418354904,10.2172492705926,3.0,-1.0
ReI3,mp-573815,11,-4.319555624583333,5.676465752308041,-0.06541436708333315,995.048887320552,0.9580000000000002,9.424536999999999,11.455287,1.0,1.0