pretty_formula,task_id,spacegroup.number,final_energy_per_atom,density,formation_energy_per_atom,volume,band_gap,min_abc,max_abc,Dimension,Dim
Li5GeAs3,mp-1101643,15,-3.6435946977777776,3.2772395599747206,-0.5163727640740743,336.5523253386863,0.0,7.395791218872799,8.673381077794115,3.0,-1.0
Ti4H7,mp-1101754,215,-5.489143162727274,3.8544937214912767,-0.5564045539703024,85.52515169326797,0.0,4.4058660000000005,4.4058660000000005,3.0,-1.0
MgTi3H8,mp-1101820,221,-4.75302576,3.292632177910052,-0.4859716440799999,88.74488454896965,0.1596000000000002,4.460475,4.460475,3.0,-1.0
Mg3TiH8,mp-1101846,221,-3.4805025691666667,2.1638291218629746,-0.26265044769111096,98.8770404070476,0.0,4.624149,4.624149,3.0,-1.0
Mg2Si,mp-1101851,62,-2.970996050833333,2.1501903857122038,-0.09570467749999996,236.9201812615052,0.0,4.204203,8.039507,3.0,-1.0
MgAl2,mp-1102064,141,-2.9898928291666667,2.348385368394741,0.04058440750000022,221.37286598256213,0.0,13.388455472841182,13.388455472841182,3.0,-1.0
CaMgPd,mp-1102662,62,-3.549226914166667,4.137947242882209,-0.6206396674999995,274.1698117880556,0.0,4.334415,8.553249000000001,3.0,-1.0
Y(Al2Cu)4,mp-11029,139,-4.375113892307692,4.660831781686387,-0.3114289358974362,199.1372643621389,0.0,6.734425578169527,6.734425578169527,3.0,-1.0
BaMgSi,mp-1103039,62,-3.3183931408333334,3.7005492610972657,-0.33687150750000033,340.52601183238795,0.1251000000000002,4.7897620000000005,8.6887,3.0,-1.0
Sb2Br9,mp-1103073,164,-2.4484090318181817,3.261785197422843,-0.3583780009090909,490.0776105550715,0.0,7.791901934356336,9.320673,2.0,1.0
SrAl9Ni2,mp-1103130,191,-4.264279495,3.4230479907608267,-0.3509514047222228,217.24991663171105,0.0,3.9550949999999996,7.964087544492464,3.0,-1.0
Sr2LiGe3,mp-1103453,69,-3.748126718333333,4.339549280447554,-0.5552985619444439,306.199237823706,0.0,6.373260903539804,8.850637629206892,3.0,-1.0
TiBe3,mp-1103465,166,-4.983233549166667,3.0295379272248324,-0.20480089624999973,123.1675595563252,0.0,7.532605737395325,7.532606163794572,3.0,-1.0
CsCrP2S7,mp-1103473,5,-5.14849894,2.6283945004216167,-0.9952307006317176,297.75546637090537,1.2254999999999998,6.541494305080148,7.062875870684192,3.0,-1.0
NiS2,mp-1103643,62,-4.8809920875,4.353543399386608,-0.6389532829166663,187.3903947036562,0.0,3.5685949999999997,9.106198,3.0,-1.0
Y3AlC3,mp-1103810,51,-7.6525839157142865,4.323892772947657,-0.3918223057142843,253.2586023281484,0.0,3.589179,9.997305,2.0,1.0
K5(CN2)3,mp-1103814,229,-6.316157211428572,1.98766023675124,-0.5342164999485713,263.62957220556893,0.0,6.9963576975025354,6.9963576975025354,3.0,-1.0
Na5(CN2)3,mp-1103994,229,-6.36682752,2.048403474705409,-0.5119392122104754,190.5199829493764,0.0,6.2784745992894635,6.2784745992894635,3.0,-1.0
Al4Tc,mp-1104047,8,-5.4408799320000005,4.4193824160370045,-0.37229528600000017,232.1241241593246,0.0,5.170349076949448,9.17735871093399,3.0,-1.0
TiBe12,mp-1104067,139,-4.206826089230769,2.3249034721601265,-0.14771482794871815,111.43085725445162,0.0,5.5849341396955605,5.5849341396955605,3.0,-1.0
Be12Fe,mp-1104104,139,-4.149120133846154,2.6116908934371046,-0.04581572923076968,104.26722714172787,0.0,5.452043138380602,5.452043138380602,3.0,-1.0
MnAl12,mp-1104165,204,-4.2540794815384615,2.980310687329249,-0.0918782176657827,211.00939566672923,0.0,6.495928382027314,6.495928382027314,3.0,-1.0
Be12Co,mp-1104193,139,-4.039556164615385,2.636347525115103,-0.04099676653846219,105.23720162449163,0.0,5.469221485117696,5.469221485117696,3.0,-1.0
NaSi6,mp-1104400,63,-4.7979385314285725,2.3569014520362632,0.040138088095237175,269.8439762738401,0.0,5.6742989423698855,12.234844,3.0,-1.0
C3N4,mp-1104403,187,-8.400771937142858,1.9123990483605653,0.0978324700685716,159.86977195922654,0.8470000000000002,3.619417,7.141649718596188,2.0,1.0
Ca3Pd2,mp-1104661,148,-3.915848117333333,4.186058692276082,-0.6405354653333333,396.37455878670545,0.0,7.670307615919,7.67030803231852,3.0,-1.0
Ca5Pd2,mp-1104669,15,-3.4139047278571435,3.2456007285461657,-0.5013671535714285,422.8397858405014,0.0,7.680467608223343,8.974427389926614,3.0,-1.0
Os(SeBr6)2,mp-1104676,12,-2.662728276666667,3.895381089063119,-0.13857655097916674,557.1524811940935,0.0875,7.015340708981781,9.390317434157858,0.0,1.0
LiCa2HC3,mp-1104693,127,-5.5347054928571415,2.3490371017962053,-0.27181958027904635,175.5054480616462,1.3140000000000005,3.7760480000000003,6.817522,3.0,-1.0
Na(GeP)3,mp-1104707,26,-4.660039635,3.4448929346861568,-0.17095486843537344,321.832648762564,1.2305,3.6660220000000003,10.409189999999999,3.0,-1.0
Li(Mg2Si)4,mp-1104791,221,-2.9298230830769234,1.9749045804886536,-0.12886774871794854,263.78454064958044,0.0,6.413323,6.413323,3.0,-1.0
MnBe12,mp-1104792,139,-4.219489837692308,2.5810698201417828,-0.06297746458886003,104.9207314298707,0.0,5.458895584867785,5.458895584867785,3.0,-1.0
Cu2AgPS4,mp-1105189,31,-4.36217931375,4.356026992918339,-0.5701524797172617,300.53738178527715,1.0718000000000003,6.205047,7.661542999999999,3.0,-1.0
BaP3,mp-1105406,14,-5.198821018125,3.7021232399772463,-0.6591139145535712,413.0994557847725,1.4242,6.6048089999999995,8.259103436426619,3.0,-1.0
Ca5CdCu2,mp-1105558,140,-2.578158810625,3.1783528325004182,-0.1844959981250001,459.6465843279077,0.0,9.234097427518675,9.234097427518675,3.0,-1.0
Hf2Be17,mp-1105643,166,-4.620213031578947,4.809934695689453,-0.22629743131578925,176.13245386082966,0.0,5.646846136918287,5.6468461714952,3.0,-1.0
Sc7P3,mp-1105778,186,-7.010380479,3.392490718355201,-0.953666347071428,399.03234453316213,0.0,5.714099,8.979762855686667,3.0,-1.0
Li2MgSi,mp-1105932,215,-2.956713591875,1.7051652711892882,-0.24585364104166674,258.15227919694644,0.218,6.367349,6.367349,3.0,-1.0
Sr2Si,mp-1106,62,-3.2982190633333333,3.3534623549698366,-0.3634602211111109,402.72399120343215,0.3433999999999999,5.1496319999999995,9.617164,3.0,-1.0
Ca3Pd,mp-1106061,62,-3.24237125,3.0338251427508185,-0.4432008875000002,496.228759261844,0.0,6.599500999999999,9.813253999999999,3.0,-1.0
MnB4,mp-1106184,14,-7.465500555,4.4934574629654485,-0.2896458442643677,145.13111358449092,0.0,5.36388,5.475923354400242,3.0,-1.0
SrP3,mp-11108,12,-5.1215067975,3.3482453344880247,-0.6391720880952381,179.07639888224915,0.06190000000000051,5.744088014282857,5.904162716803797,3.0,-1.0
K2InSbI6,mp-1112018,225,-2.6006083660000003,3.6776993553003896,-0.7760525106000002,485.921857333123,0.536,8.824575249482434,8.824575249482434,3.0,-1.0
K2HgAsI6,mp-1112032,225,-2.291752172,4.322754640491752,-0.6589849365999999,428.36696024762637,0.0,8.461427834082023,8.461427834082023,3.0,-1.0
K2CuSbI6,mp-1112035,225,-2.644650924,4.208123053892618,-0.6853427746000005,404.4404882227356,0.7581000000000002,8.300862268850869,8.300862268850869,3.0,-1.0
K2TlAgI6,mp-1112078,225,-2.3520221869999998,4.389596771687523,-0.6961139302666666,435.742370878732,0.0,8.509713327742128,8.509713327742128,3.0,-1.0
K2InAgI6,mp-1112095,225,-2.469218316,4.1658756057512525,-0.7743069842666663,423.4419823769291,0.0,8.42887546630332,8.42887546630332,3.0,-1.0
K2InSbBr6,mp-1112183,225,-2.9489612110000003,3.2744198065137327,-1.0566570006,402.7577036138037,0.6620000000000001,8.289333599890403,8.289333599890403,3.0,-1.0
K2HgSbI6,mp-1112197,225,-2.301597395,4.156115976998825,-0.7218418761000001,464.2561153103634,0.0,8.691422799944322,8.691422799944322,3.0,-1.0
K2AsAuI6,mp-1112432,225,-2.5428738500000003,4.640878277400085,-0.6130864971000001,397.7067068320409,0.0,8.254535460974651,8.254535460974651,3.0,-1.0
Rb2InAsI6,mp-1114522,225,-2.615874003,4.137999944300547,-0.7642794060000003,450.28860947356316,0.0,8.603371035123848,8.603371035123848,3.0,-1.0
Cs(MnP)2,mp-11181,139,-6.485599988,4.680819905278738,-0.4765225808768477,108.10382131660828,0.0,7.876431199135876,7.876431199135876,3.0,-1.0
VSi2,mp-11190,181,-7.12889823,4.640041982589596,-0.4840535266666666,114.99755267640491,0.0,4.564947190305272,6.3721559999999995,3.0,-1.0
Y,mp-112,194,-6.462921475,4.494516911194184,0.0035496383333333274,65.69410688235865,0.0,3.658987514902448,5.665965,3.0,-1.0
Sc6FeSb2,mp-11201,189,-6.660421162222222,4.761133714720857,-0.5801078299999998,198.48498765212798,0.0,3.906991000000001,7.659092656514673,3.0,-1.0
Cu2SeS3,mp-1120816,9,-4.042339013333334,4.243918599434403,-0.3567899436197912,236.52336372782383,0.6980999999999993,6.261530470683426,7.1901934261601745,3.0,-1.0
Sc2Al,mp-11220,194,-5.8211189400000025,3.0241747661730023,-0.350947593333333,128.36956209986127,0.0,4.9006957988874404,6.171858,3.0,-1.0
Al12W,mp-11227,204,-4.535189833846154,3.857812653895915,-0.08095626230769262,218.496947543528,0.0,6.571871881735978,6.571871881735978,0.0,1.0
YAl,mp-11228,63,-5.52437032,3.8798450281335866,-0.4183468483333329,99.19753737644888,0.0,4.482586,6.083440051472932,3.0,-1.0
YAl,mp-11229,221,-5.52092732,4.104683241505227,-0.4149038483333332,46.88194551791712,0.0,3.6058019999999997,3.6058019999999997,3.0,-1.0
Y2Al,mp-11230,62,-5.874207875833334,4.241096406844241,-0.3147018569444444,320.73515020506295,0.0,5.114955999999999,9.491062,3.0,-1.0
YAl3,mp-11231,221,-4.8507212,3.6425395666841474,-0.4249215491666663,77.43041050830782,0.0,4.262233,4.262233,3.0,-1.0
MnBe2,mp-11270,194,-5.797249266666667,4.81979713360536,-0.2504051998850585,100.54940254061545,0.0,4.1444661375933585,6.759455,3.0,-1.0
Be3Nb,mp-11273,166,-5.56567796,4.710119678991211,-0.2357920512499998,126.85659471054242,0.0,7.503427506021098,7.503427779595738,3.0,-1.0
ScBe5,mp-11277,191,-4.367002668333334,2.3976140427755803,-0.1954137633333334,62.34383304209296,0.0,3.527737,4.517345659059644,3.0,-1.0
TiBe,mp-11279,221,-5.95775061,3.7521935673430087,-0.14029816916666693,25.171969966926106,0.0,2.930707,2.930707,3.0,-1.0
TiBe12,mp-11280,191,-4.121243480769231,2.2824160433954552,-0.0621322194871801,113.50515506859672,0.0,4.228785910653908,7.329149,3.0,-1.0
Be2V,mp-11281,194,-5.739090724166666,3.9362401356325503,-0.2181801241666672,116.37553349160105,0.0,4.367139842484551,7.045906,3.0,-1.0
ZrBe5,mp-11283,191,-4.781887271666666,3.623393533594746,-0.24109311249999976,62.457035137043974,0.0,3.460462,4.565184591538441,3.0,-1.0
CaGa2,mp-11284,194,-3.2062632533333333,4.589510606919424,-0.5189996249999999,129.9078010378077,0.0,4.505908177435155,7.388222,3.0,-1.0
GaSe,mp-11342,160,-3.8510415775,4.4140862434427515,-0.5890380874218755,111.86638249583618,1.362,9.13031128631713,9.130312021412903,2.0,1.0
CaAl9Co2,mp-11350,191,-4.5393065525,3.197264420306193,-0.3782717241666672,208.14916527362328,0.0,3.859948,7.890986574255085,3.0,-1.0
Na3As,mp-1136,194,-2.56967388125,2.3390549433774384,-0.4189051174999996,204.30171978076925,0.09220000000000006,5.098226666636645,9.076181,3.0,-1.0
LiGaSi,mp-11390,216,-3.6173025333333335,3.41075944768119,-0.16319173694444444,50.99762666495595,0.1974999999999998,4.162507104034539,4.162507104034539,3.0,-1.0
ScGa,mp-11411,63,-5.28278373,4.70564654556108,-0.6025014262499999,80.93630137640427,0.0,3.9136849999999996,5.515432174193152,3.0,-1.0
Ca3Al7Ag2,mp-11430,166,-3.468534505833333,3.5338776869612056,-0.31012263444444405,246.61840167608705,0.0,9.534369095335043,9.534369576079218,3.0,-1.0
KCu2GeS4,mp-1147571,121,-4.2566174675,3.609407459192413,-0.7786425163124999,168.88306211244483,0.0,6.179303391122417,6.179303391122417,3.0,-1.0
KCuH3,mp-1147650,140,-3.0827957560000003,2.964052658794135,-0.09703263577199976,118.3960351268264,0.0,5.397656448171189,5.397656448171189,3.0,-1.0
RbInH3,mp-1147705,225,-2.724321673,3.897241350162669,-0.034036115672000024,173.25258370847848,0.0,6.257462264150858,6.257462264150858,3.0,-1.0
CuS2,mp-1147712,61,-4.181645895833333,3.827484809412397,-0.4999170945833331,221.5668998563784,0.0,5.563211,7.0312740000000025,2.0,1.0
CoS,mp-1147746,129,-6.0429653625,4.420718991746983,-0.7523115315625013,68.36266139950712,0.0,3.6330139999999997,5.179464,2.0,1.0
K3Cu2H7,mp-1147754,139,-2.920264610833333,2.9028716845109432,-0.06961737661166605,143.83345404849746,0.0,10.436684773612118,10.436684773612118,3.0,-1.0
Ca(AlSn)2,mp-1147766,164,-3.71446683,4.0903048659472345,-0.21128778,134.56309145319798,0.0,4.536950038365091,7.548616,3.0,-1.0
Cu2GeS4,mp-1147769,121,-4.389136215714286,3.8781227651064887,-0.5729361210714288,140.43999185191134,0.0,6.23886893404181,6.23886893404181,3.0,-1.0
K3VSe4,mp-1147776,121,-4.25246928,2.4986798762976052,-0.9526256772968748,321.70098340494593,1.3264,7.811633144549543,7.811633144549543,3.0,-1.0
K2CuH4,mp-1147780,139,-2.840370688571429,2.4374650526948884,-0.0862348014971427,99.3097396087725,0.0,7.136339358550433,7.136339358550433,3.0,-1.0
Li3Pd,mp-11489,225,-3.0328727825,3.5761388051643435,-0.3062101799999999,59.08382866634111,0.0,4.371809297052194,4.371809297052194,3.0,-1.0
YMg2,mp-11499,194,-3.308115685,2.919276223953458,-0.08577194722222241,312.8863782440701,0.0,6.059443621712147,9.839896000000001,3.0,-1.0
MoP4,mp-11508,15,-6.83116366,4.445367586081046,-0.33140636485714337,164.23599549107382,0.0,5.861789454427207,6.212353726441855,3.0,-1.0
Li2Ca,mp-11644,227,-1.9527614783333327,1.077138599119172,-0.011612940555555321,166.37169646878945,0.0,6.173500404952768,6.173500404952768,3.0,-1.0
SnS2,mp-1170,164,-4.46890474,3.6700886813816402,-0.8170542104166666,82.72632878801336,1.5615,3.6999202494411962,6.977958999999999,2.0,1.0
K4ZnP2,mp-11719,166,-2.7575212414285715,1.923342779335892,-0.396391081306123,244.97843385028838,1.0625,9.374466504004268,9.374466559310617,3.0,-1.0
Li5GeP3,mp-1173014,15,-3.894322894444445,2.205444807137033,-0.5157118085978836,301.57181041187215,0.0,7.1366013145481215,8.340130854097913,3.0,-1.0
K2O,mp-1173084,141,-3.368988663333333,1.710173392313894,-1.2135008757500003,182.92430302148472,0.4029,7.617305042364918,7.617305042364918,3.0,-1.0
MgSc,mp-1174,221,-4.00641515,2.4718005757628867,-0.04004057249999926,46.52901665776509,0.0,3.5967309999999997,3.5967309999999997,3.0,-1.0
Ti6Si2B,mp-11750,189,-7.86742551,4.445878801793104,-0.6559841865740752,132.28798961578715,0.0,3.3172910000000004,6.785832088496223,3.0,-1.0
N2,mp-1176403,62,-7.2996997275,1.6531116117352054,8.881784197001252e-16,56.27852923912989,0.0,2.17446,7.727432,1.0,1.0
LiSbS,mp-1176579,29,-4.09826917,3.7696545170792013,-0.9279645121527782,283.27075849683945,0.4000999999999997,6.220333999999999,7.298653999999999,2.0,1.0
LiNO2,mp-1176591,44,-5.930345755,2.06847731448085,-1.3421642570533336,42.504566559292016,0.0002000000000000057,3.9662308738521515,3.9662308738521515,3.0,-1.0
LiMnP,mp-1176614,129,-6.1184866216666665,3.796683536482558,-0.6238482221866448,81.22126165396206,0.0,3.6332480000000014,6.152897,3.0,-1.0
LiCrP2S7,mp-1176770,5,-5.0984890990909095,2.2579272576701297,-0.8530826329410168,253.9718385297657,1.3148000000000004,6.128692223339821,6.525725875275179,3.0,-1.0
CoCu2SiS4,mp-11769,121,-5.0545623725,4.012250089059425,-0.7265617946875009,141.69603132584612,0.0,6.399529324331751,6.399529324331751,3.0,-1.0
CoCu2SnS4,mp-11770,121,-4.7942862425,4.5804007711558725,-0.6432534353125003,156.97435068899932,0.0,6.582542167218982,6.582542167218982,3.0,-1.0
Li2CuS2,mp-1178012,137,-4.0234356805000004,2.5759460349469685,-1.0508292530833336,365.0116671712062,0.0,5.837583,7.907457000000001,3.0,-1.0
YH3,mp-1178678,185,-4.75699994375,3.9712849204810174,-0.7105796693816663,230.63488740488984,0.006799999999999695,6.348063403438879,6.608636,3.0,-1.0
SrH2,mp-1179094,63,-3.3141462033333333,3.5414047533557937,-0.5911613446355553,84.05923122344423,1.5265000000000002,4.128050234511447,5.730837,3.0,-1.0
SrO10,mp-1179224,124,-5.043828470909091,2.7193363750756663,-0.5248070217424243,302.4066637770411,0.0,5.801815,8.983872999999997,1.0,1.0
SrO10,mp-1179236,124,-5.0414625754545455,2.231334748597283,-0.522441126287879,368.5441825307242,0.1521,5.849746,10.769996,2.0,1.0
Sc5Ga3,mp-1179520,12,-5.622881779375,4.242354746836288,-0.5295527753124993,339.7115893300479,0.0,5.964730078807004,8.119879592839785,3.0,-1.0
RbMnAs,mp-1179693,129,-5.176329081666666,3.6410855804364832,-0.2425427657183915,196.40276320602143,0.0,4.208337,11.089872999999999,2.0,1.0
Rb,mp-1179802,1,-0.92687981625,1.5250358697239768,0.053654256249999976,744.4945979508938,0.0,8.978624,9.985111461849286,3.0,-1.0
NaMnCu3Se4,mp-1179864,215,-4.467290403333333,4.799115393926595,-0.3831098913737232,202.2099086402937,0.0,5.869496,5.869496,3.0,-1.0
O2,mp-1180036,13,-4.9179869125,2.4395503263764504,0.029968556250000056,43.561517800900404,0.6698999999999999,3.117047,3.8922577202088,0.0,1.0
NiS2,mp-1180046,14,-4.941170573333333,3.8178815791291134,-0.69913176875,106.84095342693243,0.18730000000000047,4.190608,5.343015400566613,2.0,1.0
NaO2,mp-1180165,61,-4.468838787916667,2.3302670174155216,-0.8293044031944442,313.4770970827282,0.0,5.1951220000000005,9.218289,3.0,-1.0
Na3Si17,mp-1180295,227,-4.81427846525,2.2389762198944627,-0.005563715749999432,810.5100994260257,0.0,10.465447647924194,10.465447647924194,3.0,-1.0
Mn2Al3,mp-1180309,213,-6.1578554215,4.846165833412407,-0.24582733536206905,261.53891351585537,0.0,6.395072,6.395072,3.0,-1.0
NaO2,mp-1180346,61,-4.523390254166666,2.3279355947999862,-0.883855869444444,313.79104373796366,0.0,5.148208,9.375831,3.0,-1.0
KSe3,mp-1180659,5,-3.3464223525,3.1251688928589383,-0.4468890075078121,293.278708700202,0.7748999999999999,6.518773846196308,8.120066938497612,3.0,-1.0
KO2,mp-1180711,14,-4.52782898,2.26540055641723,-0.9563790184999998,208.456754788972,0.0,5.513471,8.223183875468795,3.0,-1.0
KO2,mp-1180742,14,-4.521663158333333,2.2920208417398418,-0.9502131968333334,206.03566934818886,0.0,4.649038,8.08928580046199,3.0,-1.0
KAlSi2,mp-1180795,142,-3.90759387375,2.2996265343269573,0.019056830500000288,706.2096053934247,0.012299999999999756,9.716783836023573,9.716783836023573,3.0,-1.0
TiAl2,mp-11809,65,-5.5559761583333325,3.534126300917523,-0.4270949327777783,95.69144221110287,0.0,4.003948,6.388610039139109,3.0,-1.0
K,mp-1180961,141,-1.038793865,0.8375504824566326,0.07160508200000004,155.03365097997775,0.0,8.504434947197609,8.504434947197609,3.0,-1.0
H2,mp-1181265,62,-2.199811893125,0.07474308556607644,4.440892098500626e-16,358.28839210747384,1.5177999999999998,6.061511,9.083183,0.0,1.0
CaH2,mp-1181926,62,-3.429533928333333,2.060535043864414,-0.6011761940800001,135.6900624678176,0.8037000000000001,3.7875019999999995,6.683019,3.0,-1.0
BaNa2,mp-11820,194,-1.5321223875,2.2177560879371154,-0.016030633055555594,549.0011640102962,0.0,7.31183983683457,11.857395,3.0,-1.0
BaO6,mp-1182164,15,-5.252409082142857,3.07785316516978,-0.8622914189285719,251.76160138917243,0.0,6.31749872904174,6.527194280887463,3.0,-1.0
BaO6,mp-1182169,15,-5.27547475,3.2206943573576816,-0.8853570867857142,240.59570878982976,0.06499999999999995,5.685709887854728,8.046372859393044,3.0,-1.0
CaO10,mp-1182183,124,-5.058377730909091,2.126432633932468,-0.5106182247727276,312.47392165760584,0.0,5.490377,10.365958000000001,2.0,1.0
Ca3GeN,mp-11822,221,-4.530289726,3.060417438081753,-0.8118297894759998,112.25053164344759,0.0,4.823876,4.823876,3.0,-1.0
CaO10,mp-1182382,124,-5.0856812377272735,2.512920777574513,-0.5379217315909092,264.4153171063857,0.0,5.608848,8.40503,1.0,1.0
Ca3PN,mp-11824,221,-4.971403046,2.599830489602434,-1.0948915081902857,105.5242138345158,1.4224,4.725532,4.725532,3.0,-1.0
BaO10,mp-1182404,124,-5.086612961818182,2.9526460392690925,-0.5467288238636366,334.4208071366346,0.2026,5.710816,10.254086000000001,2.0,1.0
BaO10,mp-1182511,124,-5.060724091818182,2.476528589771376,-0.520839953863637,398.7138592784478,0.11780000000000004,6.047922,10.900564,2.0,1.0
BaO10,mp-1182576,124,-5.069246868181818,2.9429105019607507,-0.5293627302272729,335.52711541287863,0.0,5.925285,9.556726,1.0,1.0
Al3Ag,mp-1183130,221,-3.4743664825,4.6112324372586855,0.04295439083333363,67.99289803249208,0.0,4.081513,4.081513,3.0,-1.0
Al,mp-1183144,194,-3.7341298575,2.726704024337018,0.01144597249999979,65.7260905802487,0.0,2.8571468501589137,9.296985000000001,3.0,-1.0
Al3Cu,mp-1183161,221,-3.8712873775,3.9705585803335137,-0.03730383749999966,60.42784848494482,0.0,3.924151,3.924151,3.0,-1.0
Al3Ge,mp-1183195,139,-3.8674521525,3.7156485856711714,0.09748668375000014,68.63761431803542,0.0,5.011958656246677,5.011958656246677,3.0,-1.0