pretty_formula,task_id,spacegroup.number,final_energy_per_atom,density,formation_energy_per_atom,volume,band_gap,min_abc,max_abc,Dimension,Dim
Ti6Al16Co7,mp-1192877,225,-5.927633646206896,4.608153087609541,-0.5117581308620688,407.71185252790207,0.0,8.323183027779974,8.323183027779974,3.0,-1.0
Ca13Al14,mp-1193055,12,-3.167676811851852,2.1401348727494414,-0.25986718000000003,697.3479593087874,0.0,9.128859679554727,9.689280349845237,3.0,-1.0
Al8Fe5,mp-1193259,217,-5.84310178,4.800941271990667,-0.2804386230769237,342.47251348222284,0.0,7.633948116429138,7.633948116429138,3.0,-1.0
YBe13,mp-1193534,226,-4.121410542142857,2.590983848977716,-0.1872078022619052,264.1295359917496,0.0,7.2018486252594895,7.2018486252594895,3.0,-1.0
C3N4,mp-1193580,187,-8.420579521071428,1.9703625312749409,0.07802488614000071,310.3335502006495,1.1413000000000002,7.03989,7.1345423322358945,2.0,1.0
B,mp-1193675,58,-6.651952058571429,2.568509323162839,0.02743971226190516,195.70046144640182,1.5349000000000004,5.042795,6.914994,3.0,-1.0
Mn5Al8,mp-1194040,160,-6.025797081923077,4.621686544786831,-0.19709408255968253,352.4968789251464,0.0,7.713805165448892,7.713805401783026,3.0,-1.0
Mg13Al16,mp-1194114,217,-2.763961730689655,2.1926035525666667,0.019929784137931082,566.2376162263075,0.0,9.026932657908333,9.026932657908333,3.0,-1.0
Sc6Al16Ni7,mp-1194264,225,-5.37896540862069,4.198369556132105,-0.607069385517242,439.93446325456085,0.0,8.536915725614374,8.536915725614374,3.0,-1.0
Sc3Mn3Al7Si5,mp-1194721,194,-6.0649264061111126,3.907258886410237,-0.5189193152203065,534.6183229428962,0.0,8.295003836759813,8.971809,3.0,-1.0
Mn(BH4)2,mp-1194910,142,-4.523262662045455,1.56691213722985,-0.119773270858955,358.72014083927274,0.0,8.218054223405563,8.218054223405563,3.0,-1.0
Mn(BH4)2,mp-1195649,70,-4.497831198863637,1.6995964609622114,-0.09434180767713682,330.71552892716625,1.7679,7.035680446667899,8.362260263367615,3.0,-1.0
MoP4H36(C6Cl)2,mp-1196957,121,-5.123728945636363,1.2504653083704644,-0.3535766431113757,625.6645081811319,1.2189,9.48071020911213,9.48071020911213,0.0,1.0
Li15Pd4,mp-1197547,220,-2.866890362105264,2.9352044734686435,-0.2693445599999997,599.4439588392411,0.0,9.200049404074036,9.200049404074036,3.0,-1.0
LiSi2B,mp-1198027,137,-5.002955791875,2.370184273070746,-0.14322012249999982,414.3206275223069,1.1654,6.840451,8.854562,3.0,-1.0
Hf2Be17,mp-1198059,194,-4.621102829473684,4.817969589849876,-0.22718722921052634,351.67743800081723,0.0,7.271736,7.472877837722559,3.0,-1.0
TcP4H36(C6Br)2,mp-1198414,121,-5.09642379909091,1.4459814483449858,-0.3211600782655575,645.5253750340966,0.0,9.599930104469877,9.599930104469877,0.0,1.0
P4H36W(C6Cl)2,mp-1200698,121,-5.150572946363637,1.4622624265109387,-0.34201185402046635,634.8608357040141,1.0348000000000002,9.543304126157198,9.543304126157198,0.0,1.0
Ti2Be17,mp-1201649,194,-4.375651742631579,2.4825220675036297,-0.19875686166666715,333.0293956136512,0.0,7.157078,7.3300692798841265,3.0,-1.0
CuAg2(NO3)4,mp-1202008,2,-5.707828846578948,3.4062142941834535,-0.8382397385712286,514.1224217111187,0.17679999999999998,7.735578,8.751100750642115,3.0,-1.0
MnCu2SiS4,mp-12023,31,-5.42146098875,3.7741297176526434,-0.8367868265193961,297.75649153046953,0.0,6.184216999999999,7.507455999999999,3.0,-1.0
Li2CuP,mp-12029,194,-3.89687449875,3.3219412764009304,-0.5642899325595239,108.37359586578688,0.0,4.027144858492677,7.7161100000000005,3.0,-1.0
TcBr3,mp-1205299,193,-4.1914303825,4.045315424534598,-0.3735805000000001,277.2510474009011,0.0,6.1226519999999995,7.2310522354841975,1.0,1.0
LiB,mp-1205309,74,-4.38909683,1.0860347132120545,-0.09493951124999978,54.28535414507965,0.3803,4.480801689384948,4.480801689384948,3.0,-1.0
CaH2,mp-1205322,63,-3.4288360216666667,2.078584732753843,-0.600478287413333,67.25588916663149,0.8277000000000001,3.8276118600571296,5.345971,3.0,-1.0
Ca3(AlP2)2,mp-1205337,15,-4.9153081938888885,2.451581395593235,-1.0085198888095237,403.8157739573151,1.2481999999999998,6.4749914119492855,8.020037448682206,3.0,-1.0
Ca3(AlAs2)2,mp-1205338,15,-4.523790777777778,3.5350557483230114,-0.9521880088888892,445.19921773802145,1.1173000000000002,6.682710835860624,8.288265473463554,3.0,-1.0
Y2MgSi2,mp-1205496,127,-5.809467395,3.942525341810193,-0.7326973316666667,217.57466551899688,0.0,4.228783999999999,7.1729270000000005,3.0,-1.0
Rb2NiP2,mp-1205511,63,-4.149822314,3.4882143034147024,-0.4362670044285714,277.6057701107767,0.6835999999999998,5.84009,7.787232788306317,3.0,-1.0
Rb2As2Pd,mp-1205560,63,-3.7934819710000003,4.418159552111764,-0.5016446179999996,321.1202711163181,1.1679999999999997,6.2991550000000025,8.190986224146272,3.0,-1.0
Cs2P2Pd,mp-1205610,63,-4.073393462,4.331980823420769,-0.5139418066009853,332.8593872525733,1.052,6.311391,8.300632539958688,3.0,-1.0
Rb2P2Pt,mp-1205641,63,-4.284697424,4.719713189949751,-0.5129879084285711,301.1437771836354,0.9465000000000005,6.31885,7.902678500525313,3.0,-1.0
Rb2NiAs2,mp-1205648,63,-3.808814925,4.1269118015109205,-0.3969265980000003,305.3752748279959,0.5722,6.0424809999999995,7.969228129610107,3.0,-1.0
Rb2P2Pd,mp-1205714,63,-4.09951898,3.7719421364122985,-0.5060146444285714,298.74588339116434,1.2687,6.151838,8.018744833899754,3.0,-1.0
Y2MgGa2,mp-1205744,127,-4.689685171,4.811020208930919,-0.5718025146666669,235.7829243745419,0.0,4.248818,7.449414,3.0,-1.0
Li5(CuGe)2,mp-1205902,164,-3.3052686266666664,4.088668098866654,-0.30648158407407383,124.71380474626251,0.0,4.227954372363189,8.056072,3.0,-1.0
Li5Ga4,mp-1205930,164,-2.7348929011111114,3.760162948192507,-0.3285599740740742,138.4886976557432,0.0,4.385290395806647,8.315474,3.0,-1.0
Ca2FeH6,mp-1205964,225,-4.181841936666667,2.7449920654936086,-0.6352172024133336,85.93005387612426,1.5673,4.953209463106521,4.953209463106521,3.0,-1.0
SrCuSi,mp-1206169,194,-4.07581463,4.386302768611984,-0.3378139822222224,135.7198233677063,0.0,4.094213712020661,9.349139,3.0,-1.0
K(CoP)2,mp-1206349,139,-5.82424631,4.030573918503558,-0.5935250580285718,90.18871526808807,0.0,7.152372229069037,7.152372229069037,3.0,-1.0
K(FeP)2,mp-1206409,139,-6.293742844,3.871045699596429,-0.5183475580285716,91.25600006586596,0.0,6.849728317740348,6.849728317740348,3.0,-1.0
Li3Mg5,mp-1206428,139,-1.74803203625,1.3833780678650531,-0.03201092999999998,170.86754557065515,0.0,6.2171573898908985,6.2171573898908985,3.0,-1.0
K3Bi2,mp-1206573,15,-2.552604617,4.118949995777433,-0.33035152480000035,431.57261019507484,0.0,6.859630660226687,9.554123481005727,3.0,-1.0
Cs2NiAs2,mp-1206689,63,-3.7827290760000003,4.740432904007683,-0.4048934291724137,332.3209407892571,0.5920999999999998,6.2000470000000005,8.188261833994321,3.0,-1.0
Al2Zn,mp-1206713,164,-2.9090789666666663,4.125610221528406,0.007886123333333236,48.04670994303389,0.0,2.8282555285307938,6.935786,3.0,-1.0
LiMg2Pb,mp-1206745,225,-2.3018776125,4.670050131221268,-0.0963451033333329,93.42689864747065,0.0,5.093257617974767,5.093257617974767,3.0,-1.0
LiCa2Ge,mp-1206798,225,-3.030220895,2.6984402270908894,-0.3944332745833328,98.29735201043978,0.0,5.180268521613334,5.180268521613334,3.0,-1.0
Rb(CoP)2,mp-1206941,139,-5.780746036,4.6144453972378745,-0.5759977589285719,95.46340065380122,0.0,7.443958541229726,7.443958541229726,3.0,-1.0
Ba(AlGa)2,mp-1207061,139,-3.4684030439999995,4.741098749362965,-0.3751403450000005,115.83816451796673,0.0,6.488335582659162,6.488335582659162,3.0,-1.0
CaNiH3,mp-1207078,221,-4.04798169,3.817822100997791,-0.5469923811720001,44.27522685223185,0.0,3.537694,3.537694,3.0,-1.0
LiMgSb,mp-1207082,216,-3.10834287,3.4246994866064706,-0.5622748177777778,74.18824379127044,1.4438,4.716465870124579,4.716465870124579,3.0,-1.0
MgAlB4,mp-1207086,191,-5.489816696666666,2.9100354640166017,-0.1459128694444433,53.94149118560149,0.0,3.0390804467537547,6.743850999999999,3.0,-1.0
KMnSe2,mp-1207101,119,-5.0045545475,3.8647575301139647,-0.6885724543356684,108.25604211654388,0.0,7.426788310127669,7.426788310127669,3.0,-1.0
Sr(AlGa)2,mp-1207102,139,-3.4219653739999996,4.317768930308677,-0.37460059033333337,108.078910445026,0.0,6.361133865803643,6.361133865803643,3.0,-1.0
BaAlGeH,mp-1207108,156,-3.931859095,4.525273641374599,-0.5500313009050002,87.31759892995997,0.8927999999999998,4.3823160143664905,5.250054,3.0,-1.0
Cs(FeP)2,mp-1207125,139,-6.220481566,4.83392643504309,-0.488085595014779,105.30292380612836,0.0,7.647656244780422,7.647656244780422,3.0,-1.0
CsMnTe2,mp-1207341,119,-4.5555561175,4.821190774648329,-0.4696284418965524,152.59529630606437,0.0,8.170638003951037,8.170638003951037,3.0,-1.0
Y(Al5Ru)2,mp-1207698,63,-5.3247712003846175,4.367964820370987,-0.5193089908974358,426.4374973791391,0.0,6.85238359333889,9.146879,3.0,-1.0
Ti3NbAl2,mp-1208228,164,-7.202882643333332,4.7991039479238,-0.3230605183333341,100.5057500541186,0.0,4.5929635646772775,5.501412999999999,3.0,-1.0
Ti4(NbAl3)3,mp-1208235,123,-6.32893596125,4.497597412962628,-0.3541818577083333,263.25148655390444,0.0,5.677711,8.16628,3.0,-1.0
Ti6Al16Fe7,mp-1208277,225,-6.120605172068966,4.430192632379473,-0.37604705000000027,415.9869120616944,0.0,8.379116362111219,8.379116362111219,3.0,-1.0
SrLiSi,mp-1208612,187,-3.2597147,2.7588364956271576,-0.2518086533333334,73.82072295859624,0.0,3.75661,4.763495526435184,3.0,-1.0
SrC6,mp-1208630,194,-8.19357045,3.2702111564499914,-0.043546813809522335,162.16803119625862,0.0,4.333648641673203,9.970737,3.0,-1.0
SrBeGe,mp-1208642,187,-3.697648503333333,4.213846939693044,-0.34700784555555586,66.70462290690148,0.0,4.073827533516853,4.64109,3.0,-1.0
Sr4CaSi3,mp-1208721,140,-3.54860955375,3.1336974895995877,-0.4186761845833336,503.20621518504686,0.0,9.763234613418751,9.763234613418751,3.0,-1.0
Sr(MgIn)2,mp-1208897,139,-2.351125354,4.235435403274222,-0.2724435913333331,143.44092833313385,0.0,7.30621218414275,7.30621218414275,3.0,-1.0
Sc3V2Si3,mp-1208991,193,-7.357067156875,4.064447109142357,-0.6769219675000002,262.29646578019526,0.0,5.175554,7.649842427004953,3.0,-1.0
Sc2Be17,mp-1209010,194,-4.186798465526316,2.248770502229233,-0.17443231210526358,359.0481650024499,0.0,7.328409,7.521529952085612,3.0,-1.0
Sc2(Al3Co)3,mp-1209089,63,-5.400725832142856,4.014574962189884,-0.5650062560714285,421.5239782153025,0.0,7.289881186570398,9.089756,3.0,-1.0
Sc6InCo2,mp-1209292,71,-6.435569662777778,4.557928949968236,-0.3285547794444447,366.081971809848,0.0,7.8102565690151975,7.8102565690151975,3.0,-1.0
Rb2MnFe(CN)6,mp-1209571,225,-7.93569915875,2.8715743700844345,-0.2689307324334482,253.1789801630291,0.0,7.100913374885797,7.100913374885797,3.0,-1.0
N2,mp-12103,194,-2.120834855,0.5442597096436589,8.881784197001252e-16,85.46902198354636,1.0557,3.9290037613487976,6.393125,0.0,1.0
RbO2,mp-12105,139,-4.4904123233333335,3.14413575172648,-0.9622506533333332,62.038631192551755,0.0,4.6078106118044815,4.6078106118044815,3.0,-1.0
Mg6NiSn,mp-1210716,101,-2.4832242646875,3.13803781320972,-0.0593006603124997,684.1749147451372,0.0,6.904936,9.954139999999999,3.0,-1.0
Li2Al,mp-1210753,63,-2.6840573566666666,1.381340819290832,-0.16291683555555514,98.24585112840359,0.0,4.4428220000000005,5.3317664764541215,2.0,1.0
Li2AlSi,mp-1210755,194,-3.390210165,1.7411005042920815,-0.1430262691666666,131.51747635196185,0.0,4.314040664291541,8.159892,3.0,-1.0
LiCa2FeN2,mp-1211085,136,-5.7021545025,2.964064505521657,-0.6529761888488879,191.5465198664891,0.0,5.346302,6.7014270000000025,3.0,-1.0
LiB3H8,mp-1211100,63,-4.26795453875,0.6590274293929919,-0.2792052495661104,239.05486075192027,0.0,5.7909440000000005,6.426242561041483,1.0,1.0
Li8Ag5,mp-1211140,217,-2.466956377307692,4.443648986281397,-0.2027899965384612,444.5910183539965,0.0,8.327747048162966,8.327747048162966,3.0,-1.0
GeP2,mp-1212495,205,-5.061620036666667,4.145120545985513,0.08824648928571399,215.66353885211825,0.0,5.996883,5.996883,3.0,-1.0
Li2MgIn,mp-12128,225,-2.26727976,3.3504198840754307,-0.2248273816666666,75.8325191098385,0.0,4.751056119646662,4.751056119646662,3.0,-1.0
Cu2NO6,mp-1213046,4,-5.382892974444443,3.5181350608584863,-0.7579064922088882,223.814986769361,0.01730000000000001,5.369425,7.1200200345511675,2.0,1.0
Ca(ZnSi)2,mp-12137,139,-3.368343986,4.1040506722112635,-0.2932009579999999,91.87353040953212,0.0,5.9079337319191385,5.9079337319191385,3.0,-1.0
Cs2NaGaP2,mp-1213705,72,-3.260844458333333,3.828857339915821,-0.4341570939730429,364.7087301229971,1.3277,9.418793205304912,9.418793205304912,3.0,-1.0
CaB4,mp-1213975,127,-6.135530247,2.631299143986877,-0.3908968543333329,210.3287061426342,0.0,4.105004,7.158013,3.0,-1.0
Ca5(BN2)3,mp-1213996,229,-6.821087381428571,2.6016675264828346,-1.2653011072699991,202.24095393126728,0.0,6.40467355317974,6.40467355317974,3.0,-1.0
Ca4MgSn3,mp-1214009,140,-3.30820455,3.8780449763475513,-0.601780158125,463.0846336869702,0.0,9.256246778249919,9.256246778249919,3.0,-1.0
BaC6,mp-1214417,194,-8.26817345,3.961948599361061,-0.08536558857142751,175.52083732652542,0.0,4.339427232793748,10.762996000000001,3.0,-1.0
Ba(MgIn)2,mp-1214765,139,-2.4232157780000003,4.560211419022708,-0.29863610000000024,151.3252650185352,0.0,7.215549645818605,7.215549645818605,3.0,-1.0
Al9Cr3Si,mp-1214838,194,-5.4229691480769215,3.7105762759514516,-0.1849200019230761,382.0952723340663,0.0,7.504604251716943,7.834034,3.0,-1.0
Al3Co3Si4,mp-1214851,229,-5.8825264585,4.618943212239085,-0.4562327629999999,266.09662262553155,0.0,7.0181139876964105,7.0181139876964105,3.0,-1.0
Al8V5,mp-1214872,217,-6.001814888076923,4.015173617365152,-0.20303511961538426,389.2150228846084,0.0,7.966553833006589,7.966553833006589,3.0,-1.0
Al12Fe7,mp-1214901,2,-5.76475179,4.6457206359114975,-0.2785975731578951,255.4558289866696,0.0,4.7949480000000015,8.708956630266393,3.0,-1.0
ZrSc,mp-1215201,187,-7.442043525,4.737454893620726,-0.0019586575000003488,47.73281625681562,0.0,3.2701119435175303,5.154199,3.0,-1.0
ZrNbAl6,mp-1215216,123,-5.57894538625,4.2536579323406265,-0.438637805,135.07881734048826,0.0,3.900612,8.878135,3.0,-1.0
ZrAl6Mo,mp-1215336,123,-5.61400428,4.439727756244222,-0.38065444999999976,130.55226789065614,0.0,3.875092,8.694015,3.0,-1.0
ZnGeP2,mp-1215424,115,-4.359062455,4.068335058738442,-0.1817266580357142,81.63094644156145,0.22189999999999974,3.846949,5.5159709999999995,3.0,-1.0
ZnSnP2,mp-1215429,115,-4.2112369475,4.4123246695812925,-0.1872651505357137,92.6049433536451,0.8700000000000001,4.027719,5.708419,3.0,-1.0
ZnGaPSe,mp-1215439,160,-3.8312680425,4.587516661432909,-0.5320089296037946,88.70622206306925,1.4235000000000002,6.920619829920223,6.920620450031702,3.0,-1.0
ZnSiAs2,mp-1215453,160,-4.10057595,4.467806833365182,-0.09975233999999933,90.44074023277348,0.0,6.8940867605927325,6.89408688642557,3.0,-1.0
ZnGeAsP,mp-1215593,24,-4.1675336725,4.6125997947740585,-0.1787397396428574,175.64027281827285,0.5836999999999999,6.83309653110484,6.83309653110484,3.0,-1.0
Zn3PBr3,mp-1215629,6,-2.683492985714285,4.022751906211369,-0.6687363697959184,192.73544580215275,1.6198,4.063782,7.0727592376209865,3.0,-1.0
ZnFeCu4(GeS4)2,mp-1215760,38,-4.607107831875,4.272683054751221,-0.6598235934375003,302.0664174027292,0.0,6.512839392950666,7.543507000000001,3.0,-1.0
Zn3P6N12Cl,mp-1215763,160,-6.690069761818182,3.4102128261388014,-0.6472305242385711,285.148365248535,0.0,7.172660117210909,7.1726601307130124,3.0,-1.0
YSc,mp-1215893,187,-6.348379415,3.856290523480857,0.051090694166666666,57.64158171471718,0.0,3.4793195601498006,5.49815,3.0,-1.0
YMgAl4,mp-1215929,164,-4.1057135350000005,3.121683513081601,-0.2642044544444448,235.2619241113295,0.0,5.520748852262435,8.913024,3.0,-1.0
Y5Sc5Si6,mp-1216112,38,-6.773397350625,3.9229649829167736,-0.7392357748958336,354.6388643316722,0.0,6.026331,8.228889082598759,3.0,-1.0
Y2Al3Fe,mp-1216123,166,-5.849017151666668,4.55005583101771,-0.4090717188888877,114.8134868430432,0.0,5.41470366249179,5.414703756669241,3.0,-1.0
Y2(MgZn)3,mp-1216143,160,-2.96233748625,4.407149686539324,-0.2732108354166667,168.40455455331042,0.0,8.527893462653072,8.52789367086252,3.0,-1.0
Y4Mg25,mp-1216163,160,-2.2338399637931032,2.2560010229931304,0.03763885356321864,709.0030468682165,0.0,9.733975320073963,9.733975837813498,3.0,-1.0
Y10Si6B,mp-1216165,162,-6.763510867058822,4.380760435480643,-0.6519822185784316,404.973270154894,0.0,6.42889,8.528641452859945,3.0,-1.0
VCu(PS3)2,mp-1216387,1,-5.256492881000001,2.828114025406752,-0.7717305145892865,216.55716692808997,0.0,5.993744,7.165834305309883,2.0,1.0
TiVH4,mp-1216687,166,-5.42524939,4.230707604287519,-0.4355252679688888,40.364469805532735,0.0,5.29267134083045,5.2926713513756924,3.0,-1.0
TiAl2Zn,mp-1217009,123,-4.54942816,4.5236453142654165,-0.3878313383333332,61.39009622990953,0.0,3.887748,3.973746,3.0,-1.0
TiBe4Nb,mp-1217010,216,-5.6604448299999985,4.334014699540468,-0.16803674388888842,67.747813177398,0.0,4.575832230841511,4.575832230841511,3.0,-1.0
TiAl2V,mp-1217015,123,-6.422587055,4.15474648395369,-0.30494961833333445,61.0586405660282,0.0,2.756261,8.037231,3.0,-1.0
TiAl6Mo,mp-1217017,123,-5.5131550725,4.125863997959796,-0.3613313191666672,123.03375373866308,0.0,3.810483,8.473527,3.0,-1.0
Ti2HC,mp-1217074,166,-7.7806525475,4.4960194818687365,-0.7162771988216674,40.16619768756559,0.0,5.140099533073752,5.140099957155697,3.0,-1.0
Ti2Si6Mo,mp-1217079,21,-7.118145598888887,4.764735200076858,-0.5416443562962969,125.52735034925051,0.0,4.720510316915427,6.51204,3.0,-1.0
Ti3Al5,mp-1217081,123,-5.69949773,3.5954387219674744,-0.3977033299999997,128.62813160701936,0.0,3.9207959999999997,8.367341,3.0,-1.0
Ti2AlCr,mp-1217087,123,-7.5487356725,4.794546931400537,-0.2513338391666675,60.50947158009251,0.0,3.13213,6.167992,3.0,-1.0
Ti3Al5,mp-1217092,47,-5.71177749,3.6051359821917015,-0.4099830899999999,128.2821417551772,0.0,3.921526,8.116411,3.0,-1.0
Ti2C,mp-1217106,166,-8.97363792,4.5082799811594265,-0.6343830088888893,39.68570814519028,0.0,5.1331030420900365,5.133103415731462,2.0,1.0
Ti2CrSi6,mp-1217112,21,-6.903918505555558,4.347239276581112,-0.4599278807407406,120.7971286332512,0.0,4.666789941064093,6.442673,3.0,-1.0
Ti4V,mp-1217117,69,-8.03993382,4.9124038662380345,0.09324100733333296,81.94164320069113,0.0,2.767063705594796,11.595040276998654,3.0,-1.0
Ti(CrSi3)2,mp-1217270,21,-7.020969505555558,4.662470380336654,-0.3816949414814819,114.10057556530285,0.0,4.540961449001081,6.3496510000000015,3.0,-1.0
SrZnSi,mp-1217755,187,-3.206794663333333,4.108904507888789,-0.41528170222222255,73.19413293745635,0.0,4.2714901281620685,4.632194999999999,3.0,-1.0
SrSiNi,mp-1217970,187,-4.71760455,4.427534070822729,-0.41929389888888896,65.40800860923781,0.0,3.9850150556102037,4.7559830000000005,3.0,-1.0
SrSiGe,mp-1217979,187,-4.255825643333334,4.2423068207980785,-0.3432179338888889,73.72287625096233,0.0,4.334235582578317,4.531548,3.0,-1.0
SrLiAlSb2,mp-1218153,156,-3.72819527,4.223753475843957,-0.6077987839999999,143.52177762371517,0.0,4.600205776009809,7.831278,3.0,-1.0
SrGaSi,mp-1218262,187,-3.84245131,4.224977327446255,-0.4614877180555557,72.87879778923028,0.0,4.22094783021302,4.7233550000000015,3.0,-1.0
SrCuSi,mp-1218268,187,-4.072584193333333,4.298167893997007,-0.33458354555555603,69.25139404451035,0.0,4.140393665994212,4.6646019999999995,3.0,-1.0
SrCaSi4,mp-1218327,119,-4.593648306666666,3.045859658073561,-0.3609254377777778,130.86479427577007,0.0,7.522184928354991,7.522184928354991,3.0,-1.0
Sr3CaSi8,mp-1218331,155,-4.559387229166666,3.1701058870344063,-0.3530075791666665,276.37466211491125,0.0,6.513893023918184,6.513893108277721,3.0,-1.0
SrCaSi4,mp-1218335,164,-4.5926871,2.9343348512447625,-0.35996423111111103,135.838552092164,0.0,3.935221808148176,10.128706,3.0,-1.0
SrCaZn2,mp-1218336,26,-1.776541685,3.6375369936352286,-0.22289959666666648,236.02559539176644,0.0,4.460501,8.435133,3.0,-1.0
SrCaAl4,mp-1218345,216,-3.3946353866666663,2.8896786213116954,-0.2817379777777778,135.40021735641537,0.0,5.763833848631655,5.763833848631655,3.0,-1.0
SrCa,mp-1218346,65,-1.81112546,2.2290117641605516,0.03641510666666692,95.13073063862629,0.0,3.977255645896678,6.290046,3.0,-1.0
SrCa,mp-1218350,187,-1.810796155,2.1958660170071016,0.03674441166666687,96.56669217719444,0.0,4.1160017453646685,6.581814,3.0,-1.0
SrBeSi,mp-1218354,187,-3.87217089,3.2019136938208583,-0.2541015105555555,64.67962695448668,0.0,4.028377407598499,4.602317,3.0,-1.0