pretty_formula,task_id,spacegroup.number,final_energy_per_atom,density,formation_energy_per_atom,volume,band_gap,min_abc,max_abc,Dimension,Dim
Zn61Pd8,mp-1208176,64,-1.8964979246376807,7.7278728775426755,-0.18224553782608688,2080.568056791973,0.0,7.799307524129567,36.0587455,3.0,-1.0
TlSbAs2PbS6,mp-1208201,14,-4.313553289318182,4.958910045884868,-0.6445098982954547,1172.7810914847564,1.4507,6.07682,24.680925,2.0,1.0
Ta6Bi2O19,mp-1208390,193,-8.851541301296297,8.375300867119469,-2.940638401064815,716.7865066539357,0.5318,6.340505767171103,20.587868,3.0,-1.0
TaNi11(BO5)4,mp-1208716,15,-6.295352594722222,5.654288036765777,-1.7601815511574082,698.840051061561,0.0,6.1256387083315635,21.81029820037005,3.0,-1.0
SrZn2Fe16O27,mp-1208968,194,-6.48446215902174,4.925059407867244,-1.9054625457699281,1041.114619393777,0.9219,6.00978210114618,33.285146000000005,3.0,-1.0
Sb4Te7Pb,mp-1209139,164,-3.6870286175,6.566433152192367,-0.16771540583333314,401.4365295112168,0.4955999999999996,4.380428062831303,24.157564999999998,2.0,1.0
RbCr(SO4)2,mp-1209234,165,-6.380617007083334,3.065703216880705,-2.2529599215625007,714.0881393371103,2.9735,4.9008199999999995,34.330778,3.0,-1.0
RbBi3Se5,mp-1209327,62,-3.9193598975,6.209473929339612,-0.5715605207465279,1184.360427509938,0.9842999999999996,4.228662,22.242045,3.0,-1.0
NaCr(PS3)2,mp-1210219,14,-5.10443592575,2.365018297779227,-0.8412148646726187,924.9050810308182,0.05659999999999999,5.965764,22.42436787421184,3.0,-1.0
NaAgTe5O14,mp-1210534,14,-5.2118533382142855,5.597271129540443,-1.4355186033333334,1178.1923432976773,0.8815,6.774798,25.044227,3.0,-1.0
Na5Sr2B10(CO13)2,mp-1210602,15,-7.0873118523333325,2.679015519477287,-2.51871174375926,1039.2157902326037,0.029899999999999927,6.646125688401098,27.291517488137444,3.0,-1.0
NbNi11(BO5)4,mp-1211101,15,-6.241225461805558,5.228029571172918,-1.7548453235185189,699.890884328936,0.0,6.1283790116114725,21.825458390903524,3.0,-1.0
Nb13(Pb3O10)5,mp-1211606,160,-7.517356186153848,7.412051454863793,-2.3982543270833334,1146.093988104932,0.0,7.658036349776567,22.9950719690251,3.0,-1.0
KIn(PSe3)2,mp-1211816,14,-3.991576233500001,3.8872915501764256,-0.42516390692053535,1178.3497957163618,1.3518,6.6188839999999995,23.39561611509784,3.0,-1.0
KMg3(SiO3)4,mp-1211817,151,-6.9607256873333325,2.651161572680508,-3.032701647233333,782.3313665364442,1.0118999999999998,5.307713861416609,32.066023,3.0,-1.0
Ge3(SbTe3)2,mp-1212511,160,-3.824042688181818,5.9913361724292775,-0.0979616313636365,340.0823785614269,0.0,21.782835542267517,21.782835672101672,2.0,1.0
Hf2Be17,mp-1212567,194,-4.6221157067543865,4.823786859274745,-0.2282001064912286,1053.7599926081737,0.0,7.476712408088533,21.766557000000002,3.0,-1.0
In9Sn4S17,mp-1212832,55,-4.180862645,4.991347527893554,-0.8527203541041667,1366.2028020165376,0.0,3.886368,22.836839,3.0,-1.0
CrI3,mp-1213805,151,-3.99505506875,4.738505896201334,-0.4387837399999999,909.8197553203768,1.1611000000000002,7.007514743590982,21.394233,2.0,1.0
Cd5Fe2(P2O7)4,mp-1214030,20,-6.444276689883719,4.126754871164554,-2.298384257873753,1102.1437928488879,0.8305000000000002,6.7351788365442085,24.489552,3.0,-1.0
Bi2(Pb2S3)3,mp-1214399,63,-4.4353362723529415,7.020927630387289,-0.8286974581250005,922.279573663879,0.7560000000000002,7.209244285964582,32.19815,3.0,-1.0
Ba5(Sn3Bi2)3,mp-1214565,194,-3.9248402465,7.4244052031004175,-0.47377991125,1345.94170140265,0.0,7.4487771554947875,28.010807,3.0,-1.0
Ba4(Sn3Bi)3,mp-1214568,194,-3.9328256384375,6.966567507158519,-0.4683173293750005,1070.0566895222817,0.0,7.3511597338842405,22.864643,3.0,-1.0
Ba6Na2Mn2Nb2O17,mp-1214806,194,-6.93921795637931,5.057203974289985,-2.750122608074035,944.0886696178385,1.7740999999999998,5.986152257283138,30.421922,3.0,-1.0
Ba6Na2Ta2Mn2O17,mp-1214895,194,-7.1343708091379305,5.694021655582246,-2.8241394201430015,941.2037215818633,1.83,5.981003650007664,30.381195,3.0,-1.0
Al3(V3C2)4,mp-1214915,193,-8.977345991521739,5.200972472003146,-0.5400483423913047,503.38655191335664,0.0,5.062919707865119,22.676126999999997,3.0,-1.0
Ag3Bi8S13,mp-1214935,12,-4.158748472083333,6.671943876460007,-0.6267980237760421,600.3807149234058,0.0,6.922080306366433,21.844055014231788,3.0,-1.0
Ag6Ge(S2Br)2,mp-1214970,62,-3.4054737046153845,5.525826719757255,-0.4220755182692304,1211.5370035140072,0.5534000000000003,6.607961,23.409447,3.0,-1.0
Ag6Ge(S2Cl)2,mp-1214971,62,-3.472424682884616,5.250825515934066,-0.5479611985784613,1162.530072856738,0.6198000000000001,6.485246,23.249289,3.0,-1.0
Ag8Hg(AsO5)2,mp-1215006,159,-4.319755134285715,6.366976920283622,-0.7607541871825398,716.3648356068611,0.04830000000000001,6.109234137123328,22.163079,3.0,-1.0
Zr5(Te2P)2,mp-1215367,166,-7.106358242727272,6.397333147951356,-1.0937874615584413,266.95663065136324,0.0,21.160565394143067,21.16056558877037,2.0,1.0
Zr8As5,mp-1215428,10,-8.007747347307692,6.630674386502856,-0.9556552653846156,1106.3124130396477,0.0,3.749256,28.82554571386743,3.0,-1.0
K3Sb5O14,mp-12156,55,-5.776356400113636,4.709473580725377,-1.9847418726818191,1339.9847969048485,1.1985,7.276461,24.691793,3.0,-1.0
Zn4CoO5,mp-1215675,156,-4.8636383610000005,5.354122115530979,-1.713476403125,248.46494017286673,0.341,3.2956803440335354,26.414619000000002,3.0,-1.0
Zr3GeAs5,mp-1215774,6,-6.751809694444442,6.861893073829799,-0.8005072755555555,697.8341463575917,0.0,3.710874,27.628343319693602,3.0,-1.0
Zn4CdS5,mp-1215784,156,-3.413963249,4.10761058219897,-1.0812818955625,432.04951605813767,1.5458,3.927916831443864,32.335411,3.0,-1.0
ZnCd4(GaS2)10,mp-1215798,1,-4.061391897428572,3.8283409394408414,-1.070190325642857,803.9897786990686,2.1406,5.560343,24.55360371704027,3.0,-1.0
Zr8As5,mp-1215880,26,-7.9934008075,6.677387275698978,-0.9413087255769224,1098.573001345692,0.0,3.7349309999999996,28.800934,3.0,-1.0
ZnCr5GaSe10,mp-1216038,119,-5.699654531176473,5.280299979695847,-0.5518785759375002,1490.2648686657901,0.0,7.499445163149973,27.02294023672981,3.0,-1.0
Zn4In2O7,mp-1216040,194,-4.9089402715384605,5.8301599887427225,-1.811863334519232,343.6439999780737,0.665,3.4366762419880352,33.597032,3.0,-1.0
ZnCu4(WO4)5,mp-1216042,1,-6.609552494500001,7.419534417629361,-1.7560354273333332,697.7302351003442,0.0,4.7514777847403415,19.52363816770043,3.0,-1.0
Zn2Cu10Sn5Hg3S20,mp-1216071,5,-4.03130987575,5.061245247666292,-0.6830535850624997,853.9822916836428,0.2433000000000005,6.774860153918233,24.87875168476204,3.0,-1.0
Y4C4I3Br,mp-1216139,8,-6.659432664166666,4.841267932422441,-0.9109350276388888,296.44645143797163,0.0,4.119839488553043,20.945900779982725,2.0,1.0
Y3(Ga2Cu)2,mp-1216178,156,-4.957507852222221,6.286609076468412,-0.545262442222222,355.3735218302742,0.0,4.290390231971212,22.292607,3.0,-1.0
Zr3Fe2Sb3,mp-1216223,6,-7.34177318125,7.654949751702907,-0.47050926,651.3277847465789,0.0,4.309772,22.07035473700833,3.0,-1.0
Zn4FeCu10(GeS4)5,mp-1216234,5,-4.38903939125,4.291412818027779,-0.7121398754375008,757.4212477089008,0.0,6.526244285253195,23.86451880662137,3.0,-1.0
Y16Se16F15,mp-1216262,6,-6.791432139787236,4.675319518907599,-2.9466156831280137,1055.1532725767963,0.14759999999999973,4.135858,25.68284838837696,3.0,-1.0
VFe3(CuO2)4,mp-1216372,166,-6.232233801875,5.282169453352534,-1.546292230624999,188.826251076236,0.7823000000000002,3.0726675276736337,23.162110172812422,3.0,-1.0
Zn3Fe2Cu10(SnSe4)5,mp-1216393,5,-4.073592733,5.408977235050196,-0.2816579300468753,956.6412271910846,0.0,7.044137796776693,25.80214930276135,3.0,-1.0
ZnFe4Cu10(SnS4)5,mp-1216401,121,-4.823693907,4.544667827002468,-0.6827069459374997,788.8955529059497,0.0,5.43287869,27.002243205215397,3.0,-1.0
V(Cr7S10)2,mp-1216997,12,-7.164509080857142,3.9875489809439593,-1.0591842812142849,591.4098712250252,0.0,6.5506008892761125,27.053864655916147,3.0,-1.0
V2(B24C)3,mp-1217011,16,-6.896312014480518,2.6361936524783625,-0.05521640746753274,1154.364160707607,0.0,5.026648000000002,26.242321999999998,3.0,-1.0
Y10Ga3Co7,mp-1217060,26,-6.523519215,5.769929947671742,-0.34815810470833386,869.5688851807054,0.0,3.9451739999999997,23.079781,3.0,-1.0
Ti8Al4CN3,mp-1217099,164,-8.0733170975,4.202625023494562,-1.1214148027379167,215.29782762867592,0.0,3.017031691668485,27.311732,3.0,-1.0
Ti4GaC3,mp-1217125,194,-8.5931508,5.1450069484649505,-0.8068500913541667,191.8561331363072,0.0,3.0871752708467977,23.244618,3.0,-1.0
Tl(CoSb3)16,mp-1217147,12,-5.012033954307691,7.675578291180563,-0.17685245861538482,1512.6088666682285,0.0,7.893204564178988,25.755124109562683,3.0,-1.0
Ti5MnS10,mp-1217196,164,-6.8312089075,3.3364418533651694,-1.6206423310982396,306.04571697997187,0.0,3.4347076246478387,29.96033700001736,2.0,1.0
Ti4MnS8,mp-1217215,164,-6.870014946923077,3.4353142279147786,-1.5986616029221932,243.10100617492824,0.0,3.4428284253394037,23.682382999999998,2.0,1.0
TiNbBi5WO15,mp-1217348,5,-7.019213919782607,8.286282296674388,-2.2479496976992737,645.077762558146,1.4255000000000004,5.478079336629674,21.646314985034962,3.0,-1.0
Zn15Te5As2P8(Pb3O14)5,mp-1217377,1,-5.8554781823478255,6.162045288116827,-2.0283175617919253,1682.8198252177006,3.1867000000000005,5.2789146916865635,37.39790673013387,3.0,-1.0
V2Cd5(P2O7)4,mp-1217403,20,-6.6824405596511625,4.081947214568742,-2.4591107699667774,1106.2630688838333,0.11609999999999987,6.736406057137071,24.56723,3.0,-1.0
Ti27CuP16,mp-1217410,8,-8.014908453636364,4.7170976411864505,-1.1083160694805192,651.787763021038,0.0,7.45023679975026,27.2557994117448,3.0,-1.0
Ti5S8,mp-1217445,6,-6.93771589948718,3.4295777893914874,-1.763763667307693,720.2518643104203,0.0,3.4185559999999997,35.3641089226428,2.0,1.0
Ti2NbNi9,mp-1217555,187,-6.88321649,8.297813638801108,-0.3904232238888892,573.8421831148702,0.0,5.1183337669927305,25.293249,3.0,-1.0
Ti4Nb(BiO3)7,mp-1217566,5,-7.272904563636364,7.788356158845882,-2.48282916604798,888.3198788135518,2.176,5.455498484722821,29.77115069772469,3.0,-1.0
Ti2VNi9,mp-1217583,187,-6.786587223125,8.174257047190812,-0.3785772045138896,548.416593340413,0.0,5.046108244011418,24.869488,3.0,-1.0
TlP4(W5O17)4,mp-1217667,1,-7.4440466867741915,6.306386198631051,-2.230470582465438,1341.0513644011373,0.0,5.414761,36.77683254882394,3.0,-1.0
Ti5Bi4(PbO9)2,mp-1217792,9,-7.395448219655173,7.7180274864453935,-2.6063147747988507,764.9234996018163,2.0752000000000006,5.525403338192969,25.054275713179265,3.0,-1.0
Ta2Al3V4C3,mp-1217823,156,-8.7395357625,7.266442214221147,-0.4921816683333339,311.99528572916,0.0,2.993784002214088,40.195411,3.0,-1.0
TaS2,mp-1217915,63,-7.75570556,3.5605042346568547,-1.4877864387500008,228.5976183588097,0.0,3.3430919752027464,23.61405,2.0,1.0
Ta4MoS8,mp-1218051,164,-7.957201107692307,7.356820795012486,-1.3371493780769232,242.9252722397729,0.0,3.3225005160872434,25.410429,2.0,1.0
Ta3C2,mp-1218120,164,-11.3923398,14.562065239260757,-0.5869609420000004,258.5626499933348,0.0,3.1376606335510537,30.326569,2.0,1.0
Ta4NiS8,mp-1218136,164,-7.584368745384616,7.185617374365983,-1.353971350384616,240.1057793870966,0.0,3.3690698206218577,24.425977,2.0,1.0
Ta3(InSe3)2,mp-1218192,187,-6.319673254545455,7.546059992702031,-0.6785669621875005,274.2397503554057,0.0,3.4943648711611384,25.933632,2.0,1.0
Ta2O5,mp-1218312,6,-9.728634790129867,8.091524226998914,-3.3080801324512983,997.5354305400584,1.4952,3.843732,40.95155647262742,3.0,-1.0
Sr6Ti3FeO14,mp-1218493,99,-7.371102581458333,4.974420205053893,-3.246115789270833,633.6872279342233,0.0,3.937412000036701,40.87456300000228,3.0,-1.0
Sr4Sn9Au7,mp-1218558,115,-3.807664953,8.705330184422474,-0.5196028285833336,533.6482069583428,0.0,4.821809,22.952767,3.0,-1.0
Sr3CaAg4,mp-1218586,6,-2.612399565833333,4.899239034574938,-0.3118661091666664,746.7595369770104,0.0,4.916931,24.122012105121907,3.0,-1.0
SrFe12O19,mp-1218653,186,-6.63486102953125,4.824614954084021,-1.9098247882942712,730.8666270726616,1.0367000000000002,6.011099736131903,23.356061999999998,3.0,-1.0
Sr3Cu3Pb3ClO8,mp-1218799,6,-5.411152802777778,6.819462375104591,-1.8709761524033337,301.5859957519648,0.0,3.870427,19.93454325884917,2.0,1.0
Sr3V5S11,mp-1218843,15,-6.321470372105264,3.840203562817399,-1.6535302328618429,1505.2723811006272,0.0,8.626837925462201,23.508607031078512,3.0,-1.0
Sr12Sn4N3,mp-1218874,123,-3.8392530926315778,4.416657310433852,-0.6724384072178949,589.6367775807519,0.0,5.288941,21.07886,3.0,-1.0
Sr10Ti(RuO5)4,mp-1218896,139,-6.868329250285715,5.5563812424907555,-2.6740100347142866,492.60922584159135,0.0,3.91550606,32.25025004748823,3.0,-1.0
Sr10Mn(RuO5)4,mp-1218911,139,-6.711276311142857,5.5938502920907105,-2.528803829779481,491.4086479387892,0.0,3.91919083,32.11243605186216,3.0,-1.0
Sr10Cu5Mo(W2O15)2,mp-1218927,87,-6.589298702600001,6.439187371973954,-2.459219525483333,646.0446257894582,0.0,21.609828796448827,21.60982892400937,3.0,-1.0
Sr10Cu5Mo3(WO15)2,mp-1218943,2,-6.5060563126,6.041520202872052,-2.4276764730833333,640.2493906033798,0.0,5.494925510146683,23.2200450477592,3.0,-1.0
Sr15Al6(OF24)2,mp-1218962,21,-5.715123701197183,3.8999336380285055,-3.9616953752763377,2060.9014786618627,1.0832,7.4005585686361695,42.70831929,3.0,-1.0
Sr10In17Au27,mp-1219336,6,-3.3460089507407416,10.346279687358972,-0.5299304780864202,1307.43507207302,0.0,4.751917,30.063570319197485,3.0,-1.0
Sc8CuTe3,mp-1219426,6,-6.003304781666667,4.80077680271788,-0.6542329233333335,836.3542466719099,0.0,3.8518809999999997,20.204607387346925,3.0,-1.0
Rb6Mn2CrCl12,mp-1219632,139,-4.253856501428571,2.88480247526704,-1.9250052363538264,633.244020798397,0.0,5.09784066,24.63199475014847,3.0,-1.0
Pt3(RhSe5)2,mp-1219761,164,-4.898311580666667,8.35367226892215,-0.37161467089583294,314.20345186319116,0.0,3.769820097259285,25.52931,2.0,1.0
Sr2YCu2BiPbO8,mp-1219942,14,-6.2339865803333305,6.634506764715158,-2.2598631076666664,936.491969777816,0.0,5.405665,31.794615999999998,2.0,1.0
Ni17(GeSe)4,mp-1220298,99,-5.5172504328,8.079547420021024,-0.28772719717500084,329.6987286023225,0.0,3.6007029999999998,25.429783999999998,2.0,1.0
Ni5(Mo2As3)6,mp-1220354,12,-7.207251622285714,8.224981813184256,-0.2668935922857145,563.9457116606823,0.0,6.784304650736213,26.355532790578646,3.0,-1.0
Nb4H3S8,mp-1220559,187,-6.432821483333332,3.964102138829848,-1.2389315447240004,264.3931235887676,0.0,3.3574038659674232,27.083971000000002,2.0,1.0
Nb4AgS8,mp-1220596,160,-6.8028001023076925,4.535408211703199,-1.3395927870512825,269.4750899069841,0.0,3.3825224771719817,27.266122531684807,2.0,1.0
Nb8P5,mp-1220618,26,-9.084418118076924,6.870597319903302,-0.7861973775274731,868.2581894844168,0.0,3.449184,26.682771999999996,3.0,-1.0
Nb3WS8,mp-1220620,160,-7.309907799166666,4.917196303602844,-1.3894110887499995,242.83329975503318,0.0,3.3173563729133777,25.55152118303761,2.0,1.0
Nb4B20Mo11,mp-1220650,71,-8.926486466285715,7.831775178101193,-0.5466256403809521,348.39786479838364,0.0,3.10418615,35.06401339075242,3.0,-1.0
Nb5S8,mp-1220654,149,-7.525058685641026,4.821036346788612,-1.502716829102565,745.0689620668753,0.0,5.815987691603638,25.434245999999998,2.0,1.0
Nb2V3(Cu3S4)5,mp-1220816,111,-5.3918638247500015,3.9580067061947437,-0.9318081828125002,811.0227127496619,1.1203,5.454294,27.261888,3.0,-1.0
Ni4Sn3,mp-1221030,6,-5.2798150125,8.669094307797858,-0.25849182892857164,905.4865272483867,0.0,5.213783,24.57819798400536,3.0,-1.0
NaP4(W3O11)4,mp-1221142,1,-7.438935735409836,5.7534547743288345,-2.306762064469164,882.2813188230838,0.2063,5.4236900000000015,24.20260450204624,3.0,-1.0
Nb19Fe20,mp-1221162,164,-9.373055763846152,8.443468424701518,-0.10831593410256493,566.813854184104,0.0,4.929454527594104,26.934699,3.0,-1.0
Sc15(In5Rh2)4,mp-1221266,6,-5.4603306409302315,6.867201863869369,-0.6013731029069763,1834.805547140661,0.0,7.11293,33.663031770581085,3.0,-1.0
MnZn4S5,mp-1221533,156,-4.2342704085000005,3.841834198936339,-1.0777073840280174,412.25594548873636,0.3746,3.87457801996682,31.709359999999997,3.0,-1.0
MnZn4O5,mp-1221575,156,-5.20456813625,5.161212075922678,-1.8297523259365176,510.3620647381839,0.1218999999999999,3.3223431721539542,27.037580099475583,3.0,-1.0
Mn2CrI6,mp-1221924,12,-4.520066451111111,4.71448744493296,-0.39556243992337176,325.2048274952836,0.0,4.186615905843883,21.785092968347712,2.0,1.0
MgZn4O5,mp-1221986,156,-4.8250959105,4.9238658886753806,-2.0383377271250005,246.82002259689563,0.9734,3.2894255844212377,26.339625,3.0,-1.0
MnCo4Cu10(SnS4)5,mp-1222130,82,-4.8589054125,4.532977832596445,-0.6565378884288791,791.6193757406046,0.0,5.40467637,27.36862139388403,3.0,-1.0
MnFe4(BiO3)5,mp-1222245,1,-6.284611925,8.026547015817663,-1.7420510681746078,646.7969363283371,0.3235000000000001,5.6470121144559,23.25119720239829,3.0,-1.0
Na3In2Bi3,mp-1222586,6,-2.81346969375,5.749211359490768,-0.17379131375000026,1069.298752905584,0.0,4.7264550000000005,27.4948374004578,3.0,-1.0
Mg8Ni3Pd,mp-1222588,3,-3.1419509075,3.755855007342397,-0.19840655333333304,632.5945753899687,0.0,5.258099,26.168882,3.0,-1.0
KTl4(CoSe)10,mp-1223476,139,-4.9349820908,7.42954071044298,-0.2710099470575,499.6594795382359,0.0,3.8639120000000013,33.5785635641465,3.0,-1.0
Mg2V6Cu4O21,mp-1223612,1,-6.743930272575757,3.382322452873898,-2.102481847007576,927.3294292518676,0.0,5.647952820906439,29.061347357579997,3.0,-1.0
KAl3(SiO4)3,mp-1223770,144,-7.237416099298246,2.665974489140734,-3.0494658823508773,740.508255580655,0.3487,5.2790877256313875,30.681846999999998,3.0,-1.0
K8Rb2Hg15(GeS4)10,mp-1224162,1,-3.541810121333333,4.342708285366567,-0.8678189423866665,2103.658508331411,1.4300000000000002,6.5490900000000005,32.58673903898731,3.0,-1.0
K5Nb16(O5F2)4,mp-1224281,107,-8.095668584489797,4.614807213839229,-2.7191260167248985,775.0593219171362,0.0,22.554060761484084,22.554060761484084,3.0,-1.0
InBi3Te4,mp-1224344,6,-3.56375568875,7.46749262410452,-0.1893818912499997,835.3242676762367,0.0,4.467822,24.28373273781628,2.0,1.0
K4NaNb5O15,mp-1224551,6,-7.6526165672,4.338749062539714,-2.8547063577633334,676.5822157399947,2.0384,4.011481,29.13265568476635,3.0,-1.0
Hf3TiTe20,mp-1224556,38,-4.616235869166666,6.273096167042322,-0.42319098722222215,829.9489497402627,0.0,7.806580049410178,27.463540999999996,1.0,1.0
In(CoSb3)20,mp-1224652,12,-5.020209156790124,7.545478636409237,-0.17257811938271658,1892.4063164054141,0.0,7.896872183570213,32.82807304570009,3.0,-1.0
Hf2ScGa3,mp-1224670,44,-6.416883266666668,8.792431566489325,-0.528361047916667,461.653217312368,0.0,3.86959717,30.56012589971297,3.0,-1.0
In(CoSb3)16,mp-1224696,12,-5.016749669846154,7.434654593978214,-0.17556770107692307,1541.6211951080347,0.0,7.944065394280815,25.916099694107103,3.0,-1.0
K5AlCr4(MoO4)10,mp-1224806,2,-6.9704591649999985,3.2566888075090645,-2.2566123400833336,2069.966105275123,2.756,5.766410483272227,40.41787755165482,3.0,-1.0
In10(Sn2S7)3,mp-1225003,1,-4.229057456216216,4.91078963001736,-0.8640018985304054,1713.5664553529405,0.6701999999999995,3.9090019999999996,27.956710396558908,3.0,-1.0
Fe4NiSe10,mp-1225243,10,-5.2961526936666665,6.986724977846189,-0.32153516189583325,509.4105043432338,0.0,3.6179660000000013,29.027843864771715,3.0,-1.0
Fe4Co(BiO3)5,mp-1225879,1,-6.1239590794000005,8.192075067309196,-1.6712597635500004,635.347476880442,0.0,5.608182299847544,23.18592501114416,3.0,-1.0
Cr5(Te3Se)2,mp-1226038,156,-5.91068232,6.10845967263662,-0.20938494420673007,321.72575754148585,0.0,3.850028819882392,25.062668,2.0,1.0
Cu3Bi2S3Br2,mp-1226093,14,-3.8888704085000003,6.076320725699296,-0.5118192774375003,945.1147368706092,0.0,3.8201110000000003,30.247068,3.0,-1.0
Fe8Cu3Te12(Cl5O16)2,mp-1226154,25,-5.245152221692309,4.554847427290833,-1.4864897758861546,1106.4951821622544,0.0,5.117305,21.166453,3.0,-1.0
Cs3Y7Se12,mp-1226222,31,-5.912197279318183,4.5531239655534135,-1.8257226137993083,1435.8930468257965,1.5161,4.1844339999999995,26.491891,3.0,-1.0
Cr10Co4CuSe20,mp-1226285,12,-6.056822089142858,6.141480448616768,-0.3716454576249995,648.4923280142534,0.0,6.365257979306494,27.979680785563744,3.0,-1.0
Cr(Fe2Sb5)2,mp-1226377,10,-5.636613981,7.9918837909102765,0.01825744499999947,620.4157128435256,0.0,3.182701,33.007528305930755,3.0,-1.0
Co5Sb15I,mp-1226477,12,-4.848330719880953,7.92028120871873,-0.13401547273809505,1885.2071769247448,0.0,7.891615530142987,32.74603272444984,3.0,-1.0