pretty_formula,task_id,spacegroup.number,final_energy_per_atom,density,formation_energy_per_atom,volume,band_gap,min_abc,max_abc,Dimension,Dim
MgAg4,mp-1222034,166,-2.626954688,8.252895635358094,-0.04085387533333318,91.70561170632836,0.0,11.776700546961573,11.776701238519768,3.0,-1.0
Mn12Zn4CN3,mp-1222039,123,-7.6099152495,7.1470626171646865,-0.20673278215010246,226.51239813152603,0.0,3.8611730000000004,15.193347,3.0,-1.0
MnBi12W2(ClO8)3,mp-1222044,8,-6.007657062619049,8.429493282155963,-1.7925845588189324,673.8544499036004,0.5895999999999999,8.905098677986336,15.504819309053554,2.0,1.0
Na26Ge14Au41,mp-1222058,71,-3.18359429962963,9.76348913655366,-0.3054154015637862,1648.0952897946536,0.0,12.888523313584995,12.888523313584995,3.0,-1.0
Mn4Ga3Cu2,mp-1222076,187,-6.000050634444442,7.582877728248024,-0.007881109013409413,243.51747186824704,0.0,4.1996494916402245,15.943122,3.0,-1.0
MnGa2Ni9,mp-1222110,123,-5.833389976666666,8.785927692707487,-0.23012934372126398,136.575953670372,0.0,3.5732180000000002,10.696833,3.0,-1.0
Mg7GaAg12,mp-1222115,160,-2.5946497434999998,7.009516769928732,-0.18361334887500008,363.4666960342135,0.0,19.324667551349805,19.324668142054005,3.0,-1.0
Mn4Fe8Si3Ge,mp-1222120,166,-8.109946756875,7.710903939248331,-0.2783330796012944,177.3206217701662,0.0,13.182950953108033,13.182951098260965,3.0,-1.0
Mg4CdAg5,mp-1222139,123,-2.367783534,6.621451781912695,-0.2191045363333334,187.82848637316158,0.0,3.273287,17.530459,3.0,-1.0
Mn4Co11Ge5,mp-1222148,166,-7.1214953295,8.701490453987113,-0.22382228443103566,234.95796248336342,0.0,16.674990669676102,16.674990732236854,3.0,-1.0
Na26(Ge3Au8)5,mp-1222153,44,-3.196436112345679,9.66283869443379,-0.3016010869341565,1643.8969784546634,0.0,12.878217710607164,12.878217710607164,3.0,-1.0
Mg4Sn6Pt5,mp-1222154,160,-4.706338536666666,9.047734160963316,-0.6521325446666666,327.5843572816437,0.0,18.72187776857452,18.72187823457286,3.0,-1.0
Mn4Cr(GaCo2)5,mp-1222191,166,-6.842789485999999,8.590914798695612,-0.2166130453060348,233.8221522578325,0.0,16.674752606835643,16.674753231128786,3.0,-1.0
Mn4Ga3Co8Ge,mp-1222222,166,-6.95005846625,8.626070268423657,-0.24876580350754285,187.30996436824825,0.0,13.411987246124749,13.411987642705984,3.0,-1.0
Mn23As16,mp-1222233,1,-7.459489466923077,7.164269211840726,-0.14499861312997495,570.7183088758168,0.0,6.7190013330897616,12.85376963040796,3.0,-1.0
KTl(CoSe)4,mp-1223231,123,-4.906775541,6.553409297576718,-0.31787863923749954,201.45527283785322,0.0,3.8906410000000013,13.308720999999998,3.0,-1.0
InTe5Pb4,mp-1223713,166,-3.693571038,7.637004766049402,-0.36169337200000057,343.89640413912633,0.0,19.046710239552368,19.046710821922513,3.0,-1.0
InTe5Pb4,mp-1223727,139,-3.69417607,7.4954849322516495,-0.3622984040000006,350.3894012430233,0.0,16.88059915056104,16.88059915056104,3.0,-1.0
InAg4,mp-1223819,166,-2.743128038,9.419328775062283,0.0732535106666667,96.30592973098223,0.0,12.103389055561008,12.103389343390715,3.0,-1.0
In4Pb,mp-1223890,12,-2.9037594,7.686302203784318,0.04011699799999988,143.98377313998336,0.0,3.3179960235892385,14.785926707413642,3.0,-1.0
In4Bi,mp-1223990,12,-2.910817292,7.685874047774098,0.06853655399999994,144.37645083067392,0.0,3.254868855321824,14.893697830670323,2.0,1.0
In(BiSe2)3,mp-1223998,160,-3.94106029,6.90767862614118,-0.4013347374062505,292.19904790647763,0.5418000000000003,19.67582764812952,19.675828540680467,2.0,1.0
In2Ag3SbSe6,mp-1224057,164,-3.5355088408333333,6.7650247074001735,-0.27671670950520816,281.9741149480502,0.0,4.049076278986727,19.859427,3.0,-1.0
HgPb4,mp-1224108,166,-2.998744718,10.9985792604469,0.032109011000000014,155.41482852376325,0.0,14.61690303236975,14.61690391382775,3.0,-1.0
K7Hg31,mp-1224131,187,-0.6286596807894738,9.018154308973468,-0.17637326121052632,1195.3868702196496,0.0,10.376173,11.533744602107332,3.0,-1.0
Hg11I2BrClO4,mp-1224171,1,-1.8512643542105265,8.596614346839633,-0.4690565312242103,509.88070984833655,1.2719999999999998,6.662275,10.793961051515147,2.0,1.0
In9Ag17,mp-1224231,8,-2.8305956526923075,9.20436716791965,-0.026033897820512884,1034.50177649985,0.0,10.090421047530674,10.160641617895054,3.0,-1.0
HfNb2VC4,mp-1224360,160,-10.056234465,8.668556261385895,-0.5373809899999991,88.7467577048712,0.0,10.43246505465209,10.432465137042634,3.0,-1.0
Ge2Bi2Te5,mp-1224417,160,-3.789777233333333,6.463459254369242,-0.15170734666666558,308.6129575962643,0.07110000000000039,19.227544320257905,19.227544883843727,2.0,1.0
Hf4Ni3As8,mp-1224437,115,-6.9653006773333335,9.653270584958477,-0.6691598319999997,256.2062723752547,0.0,3.833277,17.4361,3.0,-1.0
GeTe4Pb3,mp-1224448,123,-3.82499445125,7.435517388580034,-0.28322285312499984,269.02657564372015,1.1756000000000002,4.563763,12.916624,3.0,-1.0
Hf3AlGe5,mp-1224464,38,-6.721716216111113,9.496877236803488,-0.4181293655555561,323.7023083644824,0.0,3.78537,22.388871783196763,3.0,-1.0
Hf3ScGa12,mp-1224480,99,-4.938860835,8.445652548159929,-0.4050369796875,278.6230042984945,0.0,3.977986,17.607207,3.0,-1.0
Hf2Se3,mp-1224485,9,-7.357061744499999,8.661931183320831,-1.2766393179062496,455.38469850230865,0.0,6.4423953230910165,13.208589439693249,3.0,-1.0
Hf4ZnGa11,mp-1224496,99,-5.018251808125,9.369520512375898,-0.36840496203125017,274.05117339264217,0.0,3.9652580000000004,17.429654,3.0,-1.0
Hf(AlNi4)3,mp-1224506,123,-6.11621062,8.550752246121636,-0.4564883387499998,187.1593834693432,0.0,3.621169,14.272959,3.0,-1.0
Hf4(Ru4C)3,mp-1224508,123,-9.764294294736844,12.241413381998687,-0.3536746442105246,266.256786003117,0.0,4.081951999999999,15.979563,3.0,-1.0
Hf(Nb2B3)4,mp-1224510,71,-8.934957062857142,7.7580641131124475,-0.7958937095238092,225.05769931001308,0.0,21.373967448103848,21.373967448103848,3.0,-1.0
GeTe5Pb4,mp-1224514,166,-3.84349325,7.591386982139581,-0.3244811714999997,336.73691865544015,0.6536999999999997,18.71994824743941,18.719948283976667,3.0,-1.0
Ge3Te3Ir2,mp-1224516,12,-5.271491359375,8.637291794657225,-0.14951046000000012,378.79621124509606,0.0,7.878252212938666,9.096135917353148,3.0,-1.0
Hf(GaNi4)3,mp-1224540,123,-5.87699244875,9.62954979709613,-0.3517977289062504,188.3032079427911,0.0,3.6307769999999997,14.284286999999999,3.0,-1.0
Hf20Co5P11,mp-1224559,6,-9.160830133055557,11.124611486129568,-0.9877326205357142,627.6948450727142,0.0,3.594152,17.08082263518139,3.0,-1.0
In4(Co4C)3,mp-1224620,123,-6.458076856842105,8.974955305804007,0.0675489621052634,222.48604157510528,0.0,3.828392,15.179936999999999,3.0,-1.0
Ge(TePd4)2,mp-1224632,161,-5.104606883636363,10.580585376648976,-0.34563559318181797,740.2643984731517,0.012699999999999713,15.167144381939568,15.167144529370878,3.0,-1.0
MgSc8Ga15Cu29,mp-1224683,6,-4.285310207924528,6.999505000270126,-0.19930155023584886,776.3880613523477,0.0,8.316558,11.777313364289501,3.0,-1.0
Hf14Cu51,mp-1224756,174,-5.516687731076924,10.753300035415695,-0.15576182230769292,886.3331267990583,0.0,8.279583,11.118058286871946,3.0,-1.0
Fe3NiSb8,mp-1224765,10,-5.4318507700000005,8.094081422442825,-0.08000449999999996,246.2489424237341,0.0,3.2715349999999996,13.044459118308316,3.0,-1.0
Fe3NiAs8,mp-1224768,10,-5.9656897,7.3001109486590225,-0.26043198666666595,187.797563033432,0.0,2.978825,11.966177285076174,3.0,-1.0
Ga5Ag13,mp-1224870,1,-2.9137750550000003,9.179433070360966,-0.026902524120370367,316.7342129178045,0.0,2.9743009999999996,13.48197520993085,3.0,-1.0
Ga2Ni5Te4,mp-1224878,164,-4.56102758,7.80978342556393,-0.2401113868181813,200.5699778311763,0.0,3.86611405375708,15.4948,2.0,1.0
GaNi4Ge3,mp-1224915,26,-5.311012463125,7.958938252467116,-0.30879673968750065,217.9921858475129,0.0,3.8175209999999997,11.502908999999999,3.0,-1.0
Ga3Ni12Sn,mp-1224940,123,-5.4101238075,9.077640725729344,-0.2566551498437493,188.81647161674755,0.0,3.6241510000000003,14.375644,3.0,-1.0
GaCu4Ni15,mp-1224944,123,-5.3337792275,9.010522708068352,-0.02743060837499981,221.94056294072902,0.0,3.543738,17.67313,3.0,-1.0
Fe3Ni2,mp-1225009,123,-7.426228186999999,8.317170314372055,-0.03217178700000005,113.77037187958858,0.0,2.501819,18.176799,3.0,-1.0
Ga3Te9Pd32,mp-1225042,146,-4.969202027272726,10.630473082020199,-0.3526062818749997,744.0085175931184,0.0,15.138817001902428,15.138817108470596,3.0,-1.0
GaFe4Co8Si3,mp-1225114,166,-7.2190857475,7.793660454964655,-0.3409237823437499,180.85303831028665,0.0,13.258324446359053,13.258324733240167,3.0,-1.0
Ga3Fe4Co8Si,mp-1225352,166,-6.858934731875,8.352254017897952,-0.2804250814062508,185.31387578652004,0.0,13.364008349482953,13.364009050015492,3.0,-1.0
Fe4Co(BiO3)5,mp-1225635,1,-6.1211874989999995,8.229680981547,-1.6684881831500002,632.4442267082487,0.5834999999999999,5.604312,12.527851138391492,3.0,-1.0
Cu3Pd2,mp-1225751,123,-4.637728923,10.109772998881585,-0.1062521970000006,132.54322952409592,0.0,2.980483,14.92053,3.0,-1.0
Cu4Bi3Pb(SeO)4,mp-1225836,107,-4.77557064625,8.315546472020696,-0.853952867148438,293.1787698778162,0.0,10.110113950852485,10.110113950852485,2.0,1.0
Cu4PtO5,mp-1225837,10,-5.2727571599999985,7.540032277499923,-0.9031509866250004,233.11974716783507,0.0,4.237821,10.771601799554837,3.0,-1.0
Cu(Bi4Ir)3,mp-1225844,6,-4.81834523,11.553089457816595,0.012586623124999363,452.4602330961573,0.0,4.2424230000000005,11.68545460600609,1.0,1.0
CuBi3PbS6,mp-1225857,26,-4.348850150454545,6.719205419940081,-0.6834050712499995,538.7886403467284,0.5541,4.054913,11.687178999999999,3.0,-1.0
CuBi3PbS6,mp-1225886,31,-4.358998945909091,6.81432166741584,-0.6935538667045452,531.2680746685044,0.6994999999999996,4.062911,11.66076,2.0,1.0
Cu19Sn16,mp-1225980,1,-4.063131131428571,7.979944302774651,-0.004900376857142418,646.4773412943164,0.0,7.548664,9.79287863447485,3.0,-1.0
CuAg10(PbO4)3,mp-1226080,5,-4.375147855,8.310096713442142,-0.7401211804487181,390.81576997960366,0.0,5.904508429634513,8.751387785572069,3.0,-1.0
Cr12As4C3N,mp-1226081,12,-8.6423347745,7.086498607079098,-0.13704189711899914,228.1565426245112,0.0,5.30342079208552,14.85915796296365,3.0,-1.0
Cr(FeAs3)2,mp-1226104,10,-6.222467824444442,7.110944775850881,-0.16160519555555514,286.3947501211248,0.0,2.899986,18.309428145195717,3.0,-1.0
Cr(ReO3)2,mp-1226109,136,-8.4738004175,8.859933593281914,-2.0290121227777766,390.1407678350197,0.0,6.777261420774102,9.751986420502133,3.0,-1.0
Co3SiGe2,mp-1226179,1,-6.324446839166666,8.120993236415758,-0.3250596533333325,286.3998461638621,0.0,4.573778,13.686317861137853,3.0,-1.0
CrP8W3,mp-1226193,8,-8.021937809166667,8.195923025176244,-0.3691283282142853,172.4793158445065,0.0,4.510581718904336,13.000525240807347,3.0,-1.0
CrNi3Sb4,mp-1226284,164,-5.60617470625,8.131818804046372,-0.1674918974999997,146.0286538506686,0.0,4.0018260194638655,10.529095,3.0,-1.0
CoMo,mp-1226395,166,-9.00271008423077,9.86754429314768,-0.025729671730770263,338.81265483533014,0.0,17.361356170020038,17.361356519589418,3.0,-1.0
Fe46(BC3)3,mp-1226402,1,-8.492530052413793,7.740809030182173,0.0022860526293094338,581.2135872524957,0.0,7.429042,12.864856219875211,3.0,-1.0
Cr3B12Rh25,mp-1226568,1,-7.57824450275,10.074630360819764,-0.2477559924999994,471.1254530667086,0.0,4.823519999999999,12.984725785448266,3.0,-1.0
Co12Ge4C,mp-1226575,123,-6.675962134705883,8.882866722163769,-0.02780297823529352,188.76349174298284,0.0,3.654072,14.137213000000001,3.0,-1.0
Co2Ni2Te5,mp-1226586,2,-4.776438745,8.2010764416108,-0.1660594561111116,353.62944056238035,0.0,6.630959,9.437664286844123,3.0,-1.0
CdHg4Se5,mp-1226731,119,-2.240920874,7.0796821134619154,-0.279204013171875,307.15980903315824,0.0,15.95953359996012,15.95953359996012,3.0,-1.0
CdPb3Se4,mp-1226877,166,-3.78998725125,7.633788987099638,-0.5344276411718747,228.36871736369912,0.6772999999999998,14.176435991970232,14.176436268453546,3.0,-1.0
Cd43Pd8,mp-1227077,160,-1.7513722037254904,8.924055842154269,-0.1607189849019608,1057.839569629063,0.0,10.189207948981316,10.189207996705585,3.0,-1.0
Cr46(BC3)3,mp-1227102,1,-9.52248731637931,7.073485870691402,-0.08939446754310203,594.4828357788998,0.0,7.484116,12.950334970768356,3.0,-1.0
Ca6Ge7Au15,mp-1227148,6,-3.8199344392857135,10.489521317440571,-0.4805409619642858,586.2724776779828,0.0,4.554732,13.430294425953925,3.0,-1.0
Cd(Pt3O4)3,mp-1227215,47,-5.711934407954545,12.083666955435307,-0.8706141909090906,566.2148491770649,0.0,5.735619,17.159288,3.0,-1.0
Ca2ScP3Pt7,mp-1227341,119,-6.354011423076923,11.550757895394833,-1.0401744677472526,227.66167292133392,0.0,14.053093120091713,14.053093120091713,3.0,-1.0
Ca2AlP3Pt7,mp-1227376,119,-6.026321903846152,11.689257890746918,-0.9114767389010984,222.41084430214542,0.0,13.937050207486052,13.937050207486052,3.0,-1.0
Bi2Te4Pb,mp-1227398,160,-3.695316098571429,7.624655013666622,-0.25732761142857136,247.3086411804436,0.3841000000000001,14.428573452802606,14.428573634575699,2.0,1.0
Bi(SbTe2)3,mp-1227403,160,-3.6680567460000004,6.554611844251237,-0.15437238499999992,339.43894632626603,0.11370000000000058,20.73141032396255,20.73141068268797,2.0,1.0
Bi2Sb2Te3,mp-1227407,166,-3.7319613457142857,7.393515731831973,-0.09367936142857147,234.53917294507897,0.06379999999999962,14.025269806908671,14.025269821109505,3.0,-1.0
Bi4(TeS)3,mp-1227434,160,-4.028107575,7.000620741099635,-0.4872066119375006,311.89668236160907,0.5465999999999998,20.26763535943831,20.26763584377068,2.0,1.0
Bi4(TeSe)3,mp-1227438,160,-3.86659174,7.2858141917130075,-0.3188142937031245,331.75198524204643,0.3687000000000005,20.819317643429734,20.81931815392488,2.0,1.0
Bi4(TeSe)3,mp-1227439,8,-3.863326677,7.243771717577152,-0.3155492307031246,333.67745650244154,0.3296000000000001,7.4700157175120445,10.649685501399654,2.0,1.0
Bi2Sb2(TeSe)3,mp-1227440,160,-3.8591471960000003,6.65594670312484,-0.2635763637031253,319.62659166091686,0.3248999999999995,20.528638633411425,20.528638976367358,2.0,1.0
Ca6P19Rh30,mp-1227454,143,-6.984866806727272,7.971723519715903,-0.8791346840519478,815.7450863285771,0.0,3.8321620000000003,15.677975570518312,3.0,-1.0
BiPb4,mp-1227459,166,-3.715785768,10.79100297659767,0.03233875000000026,159.69552603117825,0.0,14.470593018379033,14.47059319949673,3.0,-1.0
Bi2Se2S,mp-1227504,62,-4.129863272,7.1569752223912175,-0.4808869835625004,564.2147526888323,1.1702999999999997,4.133573,11.899887,2.0,1.0
Bi4(SeS)3,mp-1227512,26,-4.1890139495,6.974727218615763,-0.5423298221406256,556.628083702412,1.2624000000000004,4.10931,11.8573,2.0,1.0
Bi4PPd15,mp-1227555,166,-5.153713736,11.796225791358273,-0.2201312234285709,346.74074569387847,0.0,19.11175037929284,19.11175062995104,3.0,-1.0
Bi3PbWClO8,mp-1227566,99,-6.039026214285713,8.673704501198378,-1.8098082716614283,226.178984176686,0.7772999999999994,3.894253,14.914335999999999,2.0,1.0
Cu81Sn22,mp-1227576,160,-4.0638200293203885,8.767561136446718,0.016241340388349613,1469.4926780920816,0.0,12.773396259386615,12.773397255025932,3.0,-1.0
Ca2Bi3Au10,mp-1227595,160,-3.571370236666666,13.44690714643668,-0.3433623639999998,661.0991363985096,0.0,23.737371055117308,23.73737105529728,3.0,-1.0
Ca4Ge3Au5,mp-1227613,8,-3.9097352325,8.533651027108169,-0.7213276670833331,265.23494085257755,0.0,5.873160809133871,10.76666784371771,3.0,-1.0
Be3Bi(RhO2)9,mp-1227633,148,-6.61759988451613,7.157619000276163,-1.5269862660483875,672.8606545670148,0.4112,9.627184190570418,9.62718475052728,3.0,-1.0
Bi10Te2Br4O17,mp-1227641,107,-5.27879105090909,8.188957816890623,-1.523913351250001,595.479352232392,1.0073999999999996,19.37275059532252,19.37275059532252,2.0,1.0
Bi3Te5Pb,mp-1227656,156,-3.656267614444445,7.694452551223604,-0.2007948755555557,317.70265108239073,0.0,4.626745503890397,17.137164000000002,2.0,1.0
Ca3Ge3Au8,mp-1227773,10,-3.779967294642857,10.761366924783976,-0.4887576142857145,590.6467850876979,0.0,4.540151,13.539147467398234,3.0,-1.0
BaSn2Bi,mp-1227803,8,-3.90955170125,7.292987918144554,-0.4525144887500003,531.6351338157432,0.0,7.314698706889438,12.230852222434626,3.0,-1.0
Bi12Pb2Cl6O17,mp-1227872,8,-5.240946026756757,7.707953987546724,-1.6245913054272976,733.9489904025353,1.0460999999999996,12.810382086728447,15.284801808439946,2.0,1.0
Ca14Hg51,mp-1227899,174,-0.971690178923077,10.637790848427937,-0.30144253376923075,1684.4831357479486,0.0,10.259896000000001,13.76881425635839,3.0,-1.0
BaSrPb6,mp-1227928,156,-3.5826565729166666,9.120814158283762,-0.3471147599999996,801.8742866712435,0.0,7.263596295464457,17.549804,3.0,-1.0
AlTl2Cu3Se4,mp-1228066,115,-3.832661962,6.5698616717323945,-0.3576471909375002,238.1485929070404,0.0,3.985618,14.9919,2.0,1.0
Al4Ni3Pt,mp-1228186,123,-5.51923809,7.84833092870337,-0.7200354562499998,101.3652784444797,0.0,2.917696,11.907186,3.0,-1.0
Ba4Tl13Hg3,mp-1228188,8,-2.24346374,9.507041779511015,-0.27904308225,665.1315981454743,0.0,6.8647150425509285,20.17954282847681,3.0,-1.0
Bi13Pb3Cl7O19,mp-1228274,8,-5.216359026904762,7.721342641448437,-1.6174783606326193,836.6854715804884,0.5921000000000003,15.239660477083405,15.53052081008496,2.0,1.0
Ba7Cd31,mp-1228287,187,-1.342661635,6.884911549340613,-0.23628325684210524,1072.3168269289777,0.0,10.55428,10.83133365283283,3.0,-1.0
Al4Ni15Ge,mp-1228288,123,-5.717831189500001,7.803332959887609,-0.40246212074999976,225.7724253619454,0.0,3.561082,17.803564,3.0,-1.0
Ba2Tl2Cu2HgO8,mp-1228366,107,-4.909276073333333,8.337921105357719,-1.507365068333333,226.85707548404088,0.0,15.07845218128618,15.07845218128618,3.0,-1.0
Ba3Cu17AgP6,mp-1228373,12,-4.413169727407408,6.696462117001412,-0.3111068736331567,442.8725450114176,0.0,9.198015623151006,10.509702193915725,3.0,-1.0
Ba7Hg31,mp-1228441,187,-0.9255812768421052,10.33056302078605,-0.3243474051315789,1154.0485632053985,0.0,10.169554,11.447107716061382,3.0,-1.0
Al4Ni15Sn,mp-1228460,123,-5.6592598315,7.85289014529167,-0.37456356274999936,234.0894128209684,0.0,3.617172,17.891364000000006,3.0,-1.0
Al4Ni15Sb,mp-1228500,123,-5.6662882685000024,7.963485033341483,-0.37562053050000016,231.47442099712944,0.0,3.5998089999999996,17.862576,3.0,-1.0
Al4VNi15,mp-1228506,123,-5.946967385,7.6570113851440125,-0.4085544055,225.38117217277141,0.0,3.542131,17.963394,3.0,-1.0
Al2VNi9,mp-1228540,123,-6.113555689166668,7.843234180321484,-0.3971983683333337,134.0470368980983,0.0,3.5533059999999996,10.616760000000001,3.0,-1.0
Al2Ni9Pd,mp-1228554,123,-5.6586341,8.182960900237527,-0.26761213416666746,139.73994647135072,0.0,3.602207,10.769195,3.0,-1.0
Al5Ni41B12,mp-1228559,166,-6.165649982068966,7.744774394606727,-0.3748537013793097,572.6977123572564,0.0,12.820328785968053,12.820328910008588,3.0,-1.0
Al3GeW2,mp-1228562,1,-7.062871793888887,9.416493884959573,-0.10020374638888856,275.7651422536412,0.0,4.858116000000001,13.46003803179549,3.0,-1.0
Al4Ni15,mp-1228713,123,-5.621716527894738,7.424929117364062,-0.26990844789473706,221.0332010611085,0.0,3.5752,17.292462,3.0,-1.0
Al4Cu15,mp-1228752,123,-4.122540487894737,7.33078974545888,-0.09778241578947408,240.35948236996688,0.0,3.60877,18.456224,3.0,-1.0
BaFe5Bi4O15,mp-1228771,9,-6.2288545285999986,7.660143896765794,-1.8348903485500008,647.0624591958148,0.0,9.924129181389217,13.852344595154893,3.0,-1.0
Al4Ni12C,mp-1228788,123,-5.874534321764706,7.232051553477197,-0.3703740758823521,189.25639923255244,0.0,3.670379,14.048460999999998,3.0,-1.0
AlPPd4,mp-1228856,6,-5.641990882222222,9.062852930887363,-0.6622593936507941,265.8418877888052,0.0,3.464379,11.520422793356893,3.0,-1.0
As4PRh10,mp-1228867,166,-7.03971028,9.64312657201655,-0.5268544012380942,234.14191746704287,0.0,16.756486162649168,16.756486215012323,3.0,-1.0
Al4CrNi15,mp-1228914,123,-5.9220457375,7.76163483732211,-0.35517568799999993,222.56875542726056,0.0,3.5333919999999996,17.827094,3.0,-1.0
AlAg4,mp-1228947,166,-3.002570204,8.671245147627952,0.01258976466666688,87.79377431231029,0.0,11.805235053342905,11.80523520003062,3.0,-1.0
AlV9Au2,mp-1228971,47,-7.757077855416667,8.51920677938838,-0.08637006041666713,342.81558360185176,0.0,4.850229,14.551542000000001,3.0,-1.0
AlGe3Mo2,mp-1228992,1,-6.772528143333332,7.950192511479987,-0.22153723416666635,273.68877195148724,0.0,4.853245783670133,13.412922803950655,3.0,-1.0
Al3ZnNi12,mp-1229039,123,-5.46918516125,7.772228017897603,-0.35305320750000035,181.74686809756463,0.0,3.5696470000000002,14.263181,3.0,-1.0