pretty_formula,task_id,spacegroup.number,final_energy_per_atom,density,formation_energy_per_atom,volume,band_gap,min_abc,max_abc,Dimension,Dim
Cs3YI6,mp-1112962,225,-3.3013149160000004,3.496628165044184,-1.4716395240459768,593.1699355419762,3.3523,9.431151245374132,9.431151245374132,3.0,-1.0
Cs3SbI6,mp-1112968,225,-2.6264361220000003,3.6059367173311783,-1.0305077173793105,590.3182639388933,2.6637,9.416013503402489,9.416013503402489,3.0,-1.0
Cs3BiI6,mp-1112977,225,-2.650566431,3.7531711127779546,-1.0785347193793104,605.7499421523007,2.95,9.497357653296623,9.497357653296623,3.0,-1.0
Cs3BiBr6,mp-1112980,225,-3.017446868,3.6281409913024567,-1.3776668013793103,497.5568725909733,3.6302,8.894452955812854,8.894452955812854,3.0,-1.0
Cs3AsBr6,mp-1112984,225,-2.9602963630000003,3.5298381448610185,-1.2436078868793108,448.3482090061556,3.1656000000000004,8.590995252239521,8.590995252239521,3.0,-1.0
Cs2LiSbBr6,mp-1113007,225,-3.076478385,4.067383612777452,-1.3114495759195404,356.7907156348378,2.3366,7.961156857460352,7.961156857460352,3.0,-1.0
Cs2LiBiI6,mp-1113021,225,-2.722726451,4.534272784846485,-1.0493426899195402,455.2691002555145,2.0413,8.6349744656022,8.6349744656022,3.0,-1.0
Cs2KSbBr6,mp-1113034,225,-3.0314350770000003,3.5042345176364047,-1.3462586598862072,429.36714290044296,2.9647,8.468008169787744,8.468008169787744,3.0,-1.0
Cs2KInBr6,mp-1113046,225,-2.977755043,3.66043062327514,-1.4303103768862069,407.8961888244725,2.3646,8.324437208935631,8.324437208935631,3.0,-1.0
Cs2KBiI6,mp-1113055,225,-2.685293115,3.9101923206040716,-1.091761745886207,541.5878735267281,2.6824,9.149442732176537,9.149442732176537,3.0,-1.0
Cs2KAlI6,mp-1113057,225,-2.720839083,3.825743459639343,-1.141753561886207,474.5473771877615,1.7456,8.755175547336101,8.755175547336101,3.0,-1.0
Cs2KAlBr6,mp-1113061,225,-3.1750410980000003,3.5913083144275064,-1.5282072218862073,375.1334352585311,3.2703,8.095311984414188,8.095311984414188,3.0,-1.0
Cs2YInBr6,mp-1113063,225,-3.726709069,3.662017082091933,-1.6436571862528742,430.30467852891127,3.2242,8.47416706985188,8.47416706985188,3.0,-1.0
Cs2ScInI6,mp-1113068,225,-3.2213854110000004,4.034538838981296,-1.219482084086207,488.5512997694577,2.129,8.840463938855699,8.840463938855699,3.0,-1.0
K2Hg3(GeS4)2,mp-11131,5,-3.5609508106666667,4.275741970173407,-0.8834965683999997,420.11789129787087,2.0282,6.552768368439785,9.885722105295091,3.0,-1.0
Cs2AlInBr6,mp-1113281,225,-3.1266156589999996,3.9373567188188576,-1.3156533045862069,374.0975101353808,2.2444,8.087853422086233,8.087853422086233,3.0,-1.0
CsRb2InBr6,mp-1113394,225,-2.894352815,3.2982657616251485,-1.3513814662931034,452.14731028723975,2.6797,8.615192446291724,8.615192446291724,3.0,-1.0
CsRb2AsI6,mp-1113418,225,-2.5667149190000003,3.4905769888332525,-0.9007484577931034,542.4115174863483,2.5002000000000004,9.154078524233991,9.154078524233991,3.0,-1.0
CsRb2AsBr6,mp-1113426,225,-2.919836092,3.2318746501608766,-1.1861212757931034,440.9367986606997,3.1727000000000003,8.543394237943605,8.543394237943605,3.0,-1.0
Cs2ScAgBr6,mp-1113451,225,-3.595214625,4.286977605502238,-1.5174757157528735,347.8586120753804,2.888,7.894159904156487,7.894159904156487,3.0,-1.0
Cs3ScI6,mp-1113491,225,-3.21750587,3.5996537056894065,-1.4012306788793103,555.9185071294561,2.4632,9.229440550759293,9.229440550759293,3.0,-1.0
Cs3AlBr6,mp-1113534,225,-3.134822927,3.584658109141925,-1.5094887083793107,419.28413247753855,3.3936,8.401196478460554,8.401196478460554,3.0,-1.0
Rb2YAgBr6,mp-1113556,225,-3.6523397419999997,3.8749166067845153,-1.5441742918333337,363.0267856586876,3.3533,8.007271533302214,8.007271533302214,3.0,-1.0
CsRb2AsCl6,mp-1113605,225,-3.258059762,2.5838315550562183,-1.7541902837491032,380.12413297453344,3.5203999999999995,8.131053403776045,8.131053403776045,3.0,-1.0
CsRb2ScBr6,mp-1113608,225,-3.618041488,3.1071619667270984,-1.7169916017931035,442.6203979902957,3.3041,8.554253983889069,8.554253983889069,3.0,-1.0
K3YI6,mp-1113611,225,-3.276216567,3.117852531012228,-1.382042202566667,515.3493842066274,3.1878,8.999234867076199,8.999234867076199,3.0,-1.0
Rb2ScAgI6,mp-1113626,225,-3.144365436,4.298874141606523,-1.1173485416666669,419.1782712346985,2.1919999999999997,8.400489371679367,8.400489371679367,3.0,-1.0
Rb2ScAgBr6,mp-1113696,225,-3.5749251810000002,3.933364684424266,-1.4801599316666665,339.07812736362683,2.9083,7.827172850347563,7.827172850347563,3.0,-1.0
Rb2YAgI6,mp-1113701,225,-3.2269743460000004,4.195493833752545,-1.1865572508333335,446.9021512732859,2.5563,8.581749123968727,8.581749123968727,3.0,-1.0
Rb2NaAsCl6,mp-1114362,225,-3.3301427219999997,2.7158889861480744,-1.7843482592893334,294.43671986372954,3.1733,7.46739267743916,7.46739267743916,3.0,-1.0
Rb2ScInBr6,mp-1114393,225,-3.6159958519999997,3.424577555584463,-1.5293178300000003,392.8246109200082,2.4482,8.22061979132182,8.22061979132182,3.0,-1.0
Rb2TlInBr6,mp-1114395,225,-2.898559765,3.9896299107132354,-1.2089633555,403.5446364522652,2.1675,8.294728824630857,8.294728824630857,3.0,-1.0
KRb2ScBr6,mp-1114409,225,-3.673026279,3.1281094186845086,-1.7504767353,389.8593887388648,3.2273,8.199883177856744,8.199883177856744,3.0,-1.0
Rb2NaScI6,mp-1114457,225,-3.2121094300000004,3.7640003366977055,-1.3368829143333336,441.29929124002405,2.2025,8.545734761389332,8.545734761389332,3.0,-1.0
Rb2AlTlBr6,mp-1114466,225,-3.096144413,3.946315782883873,-1.3071587935,371.0138663057765,2.9088000000000003,8.06556965898392,8.06556965898392,3.0,-1.0
Rb2AlTlI6,mp-1114469,225,-2.6603701180000003,4.207079504000311,-0.9391328535,459.32447293548415,1.8525,8.660537789955656,8.660537789955656,3.0,-1.0
Rb3AlBr6,mp-1114488,225,-3.12146068,3.3025895806230987,-1.47058695125,383.5396472903537,3.3917,8.155334036428428,8.155334036428428,3.0,-1.0
Rb3BiBr6,mp-1114493,225,-2.9953117239999996,3.418725990271993,-1.3299921472500005,458.9107950718152,3.591,8.657937051214452,8.657937051214452,3.0,-1.0
Rb3SbBr6,mp-1114502,225,-2.96637617,3.1807698431375915,-1.27715990025,447.7084010955017,3.0326000000000004,8.5869067608307,8.5869067608307,3.0,-1.0
KRb2AlI6,mp-1114509,225,-2.685761109,3.5684421326289795,-1.0896492478,464.615177864234,1.7553999999999998,8.69366291422712,8.69366291422712,3.0,-1.0
KRb2AsI6,mp-1114510,225,-2.6039910269999997,3.5836322339173816,-0.9165249083,484.85966403426437,2.1806,8.818140577773637,8.818140577773637,3.0,-1.0
Rb2ScTlI6,mp-1114514,225,-3.1811513660000004,4.006923962021946,-1.2012247740000002,489.7177345014538,2.4154,8.847493994474254,8.847493994474254,3.0,-1.0
Rb3SbI6,mp-1114515,225,-2.5973315880000003,3.4513344502974848,-0.97586367325,548.2905547047695,2.5605,9.187032528664412,9.187032528664412,3.0,-1.0
Rb2AlInBr6,mp-1114520,225,-3.0988700380000003,3.6130614101853364,-1.2708813435,364.07108744438096,2.12,8.014942227664529,8.014942227664529,3.0,-1.0
Rb2ScInI6,mp-1114526,225,-3.183350503,3.763756783093657,-1.1644208360000003,481.8417208798957,2.0620000000000003,8.799806713151034,8.799806713151034,3.0,-1.0
Rb2YInBr6,mp-1114527,225,-3.688448624,3.3460207747333834,-1.5883704011666668,423.85837696256243,3.0981,8.431637425390635,8.431637425390635,3.0,-1.0
Rb2YInI6,mp-1114529,225,-3.2598314389999996,3.656487350629108,-1.2275015711666668,515.9365952786068,2.6766,9.002651607042894,9.002651607042894,3.0,-1.0
KRb2InBr6,mp-1114539,225,-2.943851988,3.3456885449237066,-1.3793809818000002,399.179880118019,2.3924,8.264714970196612,8.264714970196612,3.0,-1.0
Rb2LiBiBr6,mp-1114561,225,-3.08295578,4.056432765774867,-1.3247973238333333,354.6203095710698,2.9118,7.944981082733929,7.944981082733929,3.0,-1.0
Rb2LiBiI6,mp-1114563,225,-2.6901576869999997,4.275303207183743,-0.9997475858333336,445.9964709522259,2.0367,8.575948019935872,8.575948019935872,3.0,-1.0
Rb2LiSbBr6,mp-1114575,225,-3.054756484,3.743294502833156,-1.2727013348333334,345.59411784718355,2.3242,7.876992765722842,7.876992765722842,3.0,-1.0
Rb2LiSbI6,mp-1114577,225,-2.668666108,4.053658737367012,-0.9543593138333336,434.6535747591424,1.9173,8.502619632513262,8.502619632513262,3.0,-1.0
Rb2LiYI6,mp-1114584,225,-3.345012901,3.9327965574498953,-1.3969591195,434.1393297451338,3.0067,8.499265117943319,8.499265117943319,3.0,-1.0
Rb2NaBiBr6,mp-1114585,225,-3.02787276,3.796601247125005,-1.3291413688333331,385.9091213814174,3.1446,8.172093881356112,8.172093881356112,3.0,-1.0
Rb2NaBiI6,mp-1114586,225,-2.640097962,4.013997736212805,-1.0091149258333334,481.6693675664969,2.2536,8.798757366687752,8.798757366687752,3.0,-1.0
Rb2NaSbBr6,mp-1114595,225,-2.999419462,3.506698022734248,-1.2767913778333333,376.51094030607504,2.5714,8.105208650923677,8.105208650923677,3.0,-1.0
Rb2NaSbI6,mp-1114596,225,-2.617645081,3.807122824491285,-0.9627653518333332,469.80014879070467,2.101,8.725882941818666,8.725882941818666,3.0,-1.0
Rb2NaYI6,mp-1114603,225,-3.2963758830000005,3.6995622551035785,-1.4077491665000004,468.71255307123045,3.1407,8.719144214193959,8.719144214193959,3.0,-1.0
Rb2ScTlBr6,mp-1114611,225,-3.6154392669999997,3.746081098530272,-1.5677643199999998,398.8127822661809,3.1100000000000003,8.262180699492841,8.262180699492841,3.0,-1.0
Rb2YTlBr6,mp-1114612,225,-3.690403251,3.639466476145957,-1.6293281031666669,430.5481654505052,3.8096,8.475765131177361,8.475765131177361,3.0,-1.0
Rb2YTlI6,mp-1114614,225,-3.26014949,3.880092109632052,-1.2668226971666663,524.5345359127637,3.2251,9.052385255390867,9.052385255390867,3.0,-1.0
Rb3AlI6,mp-1114616,225,-2.664870731,3.5663389537648635,-1.08174535725,486.47948635583833,1.9055,8.827949563042258,8.827949563042258,3.0,-1.0
Rb3AsBr6,mp-1114617,225,-2.9422374589999998,3.257691544526552,-1.20000947275,413.2620812332132,3.1121,8.360781083275057,8.360781083275057,3.0,-1.0
Rb3AsI6,mp-1114618,225,-2.582230257,3.5468549823697257,-0.90775062575,511.59607489672686,2.3105,8.977334355849289,8.977334355849289,3.0,-1.0
Rb3InBr6,mp-1114624,225,-2.9171564169999997,3.3496756187300383,-1.3656718982499998,421.69155443747565,2.5129,8.417244973966364,8.417244973966364,3.0,-1.0
Rb3ScBr6,mp-1114632,225,-3.644158442,3.1391745093953776,-1.7345953857499998,413.0134174589273,3.2763,8.35910382599008,8.35910382599008,3.0,-1.0
Rb3ScI6,mp-1114633,225,-3.192508568,3.4232776225449286,-1.3506938667500001,515.5287085114412,2.3978,9.000278556685231,9.000278556685231,3.0,-1.0
Rb3YI6,mp-1114639,225,-3.2747266180000003,3.3444805951065346,-1.4195117159166664,549.4959316969253,3.2914,9.193759942580618,9.193759942580618,3.0,-1.0
KRb2AlBr6,mp-1114652,225,-3.1476162430000003,3.268654871076659,-1.4837560268,363.9649102067497,3.3134,8.01416299599166,8.01416299599166,3.0,-1.0
KRb2AsBr6,mp-1114654,225,-2.9690328360000002,3.2514412518765763,-1.2138183623,390.37519768367514,3.042,8.203497907722168,8.203497907722168,3.0,-1.0
KRb2AsCl6,mp-1114655,225,-3.31890812,2.492598225220456,-1.793538984256,331.5441216317418,3.5016,7.768767244435117,7.768767244435117,3.0,-1.0
KRb2GaBr6,mp-1114656,225,-2.931676425,3.3774423234255084,-1.33956424155,373.2556835457541,2.1746,8.081782203262966,8.081782203262966,3.0,-1.0
Rb2NaAsBr6,mp-1114660,225,-2.972620762,3.555778220931197,-1.1969809613333335,349.44057241193474,2.5867,7.906108594544983,7.906108594544983,3.0,-1.0
Rb2NaScBr6,mp-1114662,225,-3.678349396,3.436051764146196,-1.7353745253333337,347.1350442844468,3.1403,7.888682655029418,7.888682655029418,3.0,-1.0
Rb3AsCl6,mp-1114664,225,-3.28713682,2.5696388476618006,-1.7747541717059998,351.5687257889571,3.5042,7.922125977352418,7.922125977352418,3.0,-1.0
LiZnPS4,mp-11175,82,-4.24974437,2.4972669671839736,-1.0391855406292518,153.98989737362206,2.9294999999999995,6.132025613669598,6.132025613669598,3.0,-1.0
RbGeBr3,mp-1120721,11,-3.19231171,3.302529060494652,-1.0894434005,400.0542052871775,3.1453,6.244748,8.761316876787072,3.0,-1.0
K2SnS3,mp-1120733,2,-4.027148151666666,2.5527986449548306,-1.2522582600625007,381.312218450804,2.2452,6.895911,8.37682295799965,3.0,-1.0
KInSe2,mp-1120779,122,-3.59084167875,3.7370705997826517,-0.8773652706718749,277.1242044847179,1.8512,7.222490428644332,7.222490428644332,3.0,-1.0
Li2S,mp-1125,62,-3.931962758333333,1.7485754511029823,-1.5016842249305558,174.53473556418285,3.9189,3.8082290000000003,7.262177,3.0,-1.0
Rb2Se,mp-11327,225,-2.8689459433333333,3.0977315066913578,-1.0499527357812497,133.95654383702905,1.8177,5.743275426075437,5.743275426075437,3.0,-1.0
K2Zn3S4,mp-1147664,72,-3.45995614,3.131483815559992,-1.249735229833333,427.0639023944957,2.5702,9.146679737500651,9.146679737500651,3.0,-1.0
Li10Zn(PS4)4,mp-1147693,1,-4.358406432580645,2.015467460217739,-1.2109885747619051,635.8464087394608,2.6734,6.500152,10.112827700677887,3.0,-1.0
P2S3,mp-1147714,14,-4.7945785025,2.0198127886321537,-0.5454702378035712,520.0518397956392,2.3961,4.630986,11.635147730881028,2.0,1.0
Li4Zn(PS4)2,mp-1147733,1,-4.317859143333334,2.176177055156425,-1.1507974276984134,628.2073141779,2.6014,6.145163,10.386774329204089,3.0,-1.0
Li4Zn(PS4)2,mp-1147735,1,-4.3194682166666665,2.155102442323401,-1.152406501031746,634.3505144570014,2.6309000000000005,6.252211,10.32586370881032,3.0,-1.0
Li4Zn(PS4)2,mp-1147737,1,-4.313955784666666,2.18149246782509,-1.1468940690317455,313.3383138284118,2.7348000000000003,5.7843050000000025,10.197389125544293,3.0,-1.0
K2ZnS2,mp-1147773,72,-3.41344327,2.564827357754889,-1.32813902245,268.98736734120314,2.8333000000000004,7.837975768653918,7.837975768653918,3.0,-1.0
Li2S,mp-1153,225,-3.98752998,1.629551039833128,-1.5572514465972234,46.82074180437039,3.5385,4.045613867823029,4.045613867823029,3.0,-1.0
LiGaSe2,mp-11582,33,-3.892724325,4.014292136086452,-0.9105139938802088,388.1490267213632,2.068,6.662257,8.363142999999999,3.0,-1.0
Si3N4,mp-11607,220,-8.082657240714285,3.4113281709965486,-1.213252839217142,136.57196749471183,4.0968,5.61902743122215,5.61902743122215,3.0,-1.0
Rb2GeS3,mp-11639,12,-4.111110961666667,2.8969705793122285,-1.2772666948958336,389.5119674401868,2.3355,7.734219837612648,9.913737840311947,3.0,-1.0
Al2Se3,mp-11674,9,-4.435815632,3.702710427922181,-0.8400384134062499,260.86635795161345,2.1575999999999995,6.890179091005182,7.435106228798214,3.0,-1.0
KSbS2,mp-11703,15,-4.11712647,2.9967722215794383,-1.0707814898125,249.33617509375821,1.9033,6.486039108300997,6.976949894212298,3.0,-1.0
SiC,mp-11713,160,-7.527756761000003,3.171677738353933,-0.2017094009999994,104.96228181864704,1.9728,12.780089447367182,12.78008947474207,3.0,-1.0
SiC,mp-11714,186,-7.5305482625,3.1719295569534,-0.20450090249999955,83.96315911398419,2.3298000000000005,3.09400617713556,10.127816000000001,3.0,-1.0
NaNO2,mp-1173559,2,-5.76518546125,2.013271252902085,-1.3255716258033328,113.81411211716022,2.1645,3.86294,5.548835343005053,3.0,-1.0
NaNO3,mp-1173585,1,-5.8428335360000005,2.0998170082445244,-1.442009373892666,268.85574931156384,2.7742,5.184663,8.932245573788821,3.0,-1.0
Na3PS3O,mp-11738,36,-4.568682903125,2.096002486460243,-1.5659482055245533,336.12799453678593,2.8394,5.971021,7.574061632992235,3.0,-1.0
LiCuS,mp-1176732,70,-4.117341006666667,3.3565194672712506,-0.9569678721527785,202.93831633445598,1.5798000000000003,6.0642598808425925,6.997010722828714,3.0,-1.0
Li3SbS3,mp-1177520,160,-4.1017252371428565,2.801749515722752,-1.2053338884821432,141.51878853535973,2.744,6.3522901940566285,6.352291034660487,3.0,-1.0
Li3CuS2,mp-1177695,72,-4.059792783333333,2.557003560876334,-1.2644669493749998,192.8729350431744,2.0826,6.9713051018708825,6.9713051018708825,3.0,-1.0
Ge2N2O,mp-1178197,44,-6.68193187,4.48521520070488,-0.8025987592019994,70.08093822938571,2.512900000000001,5.466756827199377,5.466756827199377,3.0,-1.0
AgClO3,mp-1178561,160,-3.847584518,4.1342602849418615,-0.482903840735333,76.84405818753126,2.8464,4.324920984832439,4.324921442343316,2.0,1.0
AgBrO3,mp-1178562,160,-3.737589242,4.572963514409799,-0.2962934520833329,85.61318250500794,2.5145,4.464877382137273,4.464877802851609,2.0,1.0
SiSe2,mp-1179443,72,-4.584303001666666,3.0534565707643964,-0.4452573432291664,202.308034972408,2.0597,6.635837089026599,6.635837089026599,1.0,1.0
NaCaH6Ir,mp-1180133,216,-4.152197728888889,4.600387616413314,-0.6414085638948145,94.32958940891837,3.5325,5.109608755182925,5.109608755182925,3.0,-1.0
NaBH4,mp-1180167,62,-3.869221586666667,0.9206714013911134,-0.3770564811633334,272.94165002977246,5.6404999999999985,5.106726999999999,8.67184,2.0,1.0
NF2,mp-1180208,1,-3.9154246975,1.5849367075999017,-0.3175672124200002,217.93640985992508,1.8965,3.379511,8.441768837991301,0.0,1.0
NClO3,mp-1180300,8,-5.01861604,1.73509610574965,-0.6299521258779996,93.27013631263736,2.0356,3.997316303971203,5.034395635748645,0.0,1.0
Mg(BrO3)2,mp-1180378,12,-4.281598543333334,2.9829390861289315,-0.9095845497222226,155.93097552169775,3.9449,5.7023017271501875,6.269692391248713,2.0,1.0
LiAlH4,mp-1180547,15,-3.3346931891666665,1.163243103888017,-0.23245229880222185,108.36014477119812,3.9431,4.518622708522698,6.117182240733148,2.0,1.0
Na2Mg2NiH6,mp-1180690,62,-3.1197360372727267,2.0422343058309225,-0.2971522934896966,518.2062595804119,1.7116999999999998,5.407674,11.382464,3.0,-1.0
KIO3,mp-1180816,5,-4.4438590735000005,3.8046401009166,-1.3695774798499998,373.6037696597722,2.8131,7.85111293239882,9.07698019160205,3.0,-1.0
K2PdN2(ClO2)2,mp-1180897,2,-5.237851825454546,2.4634517708638293,-1.3473074702072732,234.26199229131862,2.1763000000000003,4.732359,7.8776661952643705,3.0,-1.0
H2,mp-1181189,62,-3.38905345625,0.1029062549219012,4.440892098500626e-16,260.2327717488576,8.1932,4.3726389999999995,9.854266,0.0,1.0
H3CI,mp-1181198,62,-4.284065138,2.6612534006963458,-0.1900644781719997,354.2619998637851,3.5866,4.775167,10.250821,0.0,1.0
Cs2ZnH4,mp-1181768,62,-2.603938615,3.605605966423371,-0.3168679007631527,617.5921496322279,3.8942,6.374688,11.141034,3.0,-1.0
Ca(BH4)2,mp-1181812,84,-4.203170080454545,1.090576987885277,-0.4502358338448483,212.44726721799626,5.282,4.361955,6.978867999999999,3.0,-1.0
CdCl2,mp-1181940,115,-2.579479816666667,3.1393717209142817,-1.4359492455066671,96.96368163221523,3.1363,4.118125,5.717551,2.0,1.0
BaNaH6Ir,mp-1182061,216,-4.116795873333333,4.932893499378352,-0.6156321583392589,120.70774257359528,3.3846,5.5473219948730215,5.5473219948730215,3.0,-1.0
BaH2,mp-1182102,194,-3.360774676666667,4.440816427797771,-0.5612932924133336,104.20799853116232,1.7746,4.45588645694322,6.060413,3.0,-1.0
BaReH9,mp-1182236,143,-4.282034007878788,4.973408268103801,-0.32556782902242426,333.15444680255814,3.1641,7.169932644836491,7.483157,3.0,-1.0
AlH3,mp-1183246,63,-3.4821467654166667,1.2751097590853402,-0.11595031188166635,234.45073559024158,3.2608,6.398895989598517,6.534719,3.0,-1.0
CsHS,mp-1183955,87,-3.5744778258333336,3.345068259049344,-1.0384348590586785,329.57605958058787,3.6321,7.5525499366444455,7.5525499366444455,3.0,-1.0
Cs3CdH5,mp-1184118,140,-2.4377696572222223,3.65795812744724,-0.2369051924325668,468.63060265804563,2.7648,8.795842170325876,8.795842170325876,3.0,-1.0
Mg(BH4)2,mp-1185521,119,-4.042075585,0.5890665715678167,-0.3259885956630297,304.39129298216244,6.2634,7.343870793127422,7.343870793127422,3.0,-1.0
Rb2MgH4,mp-1186835,62,-2.5749752725,1.7450729181288671,-0.21493315242571395,758.4772767624678,3.298,8.212145,10.492529,3.0,-1.0
SrI2,mp-1187178,136,-3.276372121666667,3.7761411233405497,-1.6972032938888892,300.2833182443518,3.8101,5.001379,7.7485550000000005,3.0,-1.0
LiAl(PS3)2,mp-1188124,15,-4.7773110775,2.175665033927013,-1.0454101154226187,440.01910939744346,2.7627999999999995,6.2343054125287285,12.369061591977179,2.0,1.0
H2,mp-1188177,62,-3.357406694375,0.21005122513482505,4.440892098500626e-16,127.49071057039505,7.396800000000002,4.697337,5.477365,0.0,1.0
SiH8,mp-1188318,31,-3.6004703361111114,0.6116753577960788,-0.11789174599555548,196.27032269400848,7.0503,5.213467,7.209817,0.0,1.0
LiInS2,mp-1188392,33,-4.1667626275,3.291763600518983,-1.2651160448958336,375.08883870341276,2.1961000000000004,6.5552350000000015,8.155499,3.0,-1.0
Si5(H2Cl)4,mp-1188581,82,-3.9553527311764713,1.5394365700072319,-0.5400664195294115,313.14021977514574,3.9181,7.515255430078808,7.515255430078808,0.0,1.0
Li2CdSnS4,mp-1188784,31,-4.01954312125,3.313296097401023,-1.1892597692708335,374.13969376446965,1.9446000000000003,6.575684,8.076993,3.0,-1.0