pretty_formula,task_id,spacegroup.number,final_energy_per_atom,density,formation_energy_per_atom,volume,band_gap,min_abc,max_abc,Dimension,Dim
TlHgAsS3,mp-555199,64,-3.5026752987500003,5.832000309626862,-0.5454384069791671,656.117787404502,1.5939,6.289707014002004,16.680051000000002,2.0,1.0
Ag3SbS3,mp-555269,14,-3.710203532857143,5.5948253722106465,-0.4179694113392856,642.9375809718563,1.5086000000000004,6.400638,16.013594,3.0,-1.0
Re2S2NCl11,mp-555493,15,-4.2364818671875,2.9336135643844723,-0.8877401774681251,951.5493537313916,0.2345,9.148056905187245,11.950947404853222,0.0,1.0
CuS,mp-555599,63,-4.311565356666667,4.642927647084647,-0.5254670882291664,205.1711498839104,0.0,3.8029981473580814,16.421388,3.0,-1.0
CuHgSBr,mp-555645,55,-2.820609085625,6.2842611490779925,-0.4424082251562505,795.0491309359076,0.5357000000000003,4.107161,19.111871,3.0,-1.0
Cu2SiPbS4,mp-555818,154,-4.700728579166666,5.022239821722829,-0.7971868419791667,486.66895561120873,1.3388999999999998,6.0801460911765925,15.201099,3.0,-1.0
MnSbS2Cl,mp-555844,62,-5.250962261000001,4.056544479520478,-0.9528545768330346,452.38056271756113,0.0,3.821511,12.367075,3.0,-1.0
In6S7,mp-555853,11,-3.996228615384616,4.85571935645083,-0.8561492732211534,624.6962940607639,0.7486999999999995,3.9458910000000014,17.510025057777902,3.0,-1.0
OsCl4O,mp-556006,14,-4.440551306666666,3.1604174628839043,-1.025817335715,731.4683560402632,1.0652,6.008732,12.731207346404345,0.0,1.0
In2GaBiS6,mp-556231,11,-4.2520897060000005,4.779238300002441,-0.9261460586250004,486.93472506469635,1.8707000000000005,3.8428120000000003,12.466113664952125,3.0,-1.0
CuBi2(SeO3)4,mp-556303,14,-5.403044904473684,5.307454095740936,-1.360365597861842,619.0678341439607,0.556,7.463052999999999,10.83381155200717,3.0,-1.0
Ag2BrNO3,mp-556345,62,-4.6422107935714285,5.030349553075043,-0.6434240592090471,472.2407350581327,1.6049,5.15686,13.260760999999999,3.0,-1.0
CuAg5As3O11,mp-556402,2,-5.07497773575,5.817543226702207,-1.1278946328541672,572.9539080882128,0.0,5.991003,10.540161997337703,3.0,-1.0
AgBi(PS3)2,mp-556434,2,-4.492962772,3.973504640567397,-0.6542526482559531,477.4006621350738,1.1837999999999995,6.500439,9.929399863625497,2.0,1.0
Sr10Al4Si6O,mp-556496,71,-3.9137168847619046,3.2471924858006687,-0.643494720853175,597.6147034097543,0.0,11.662250028944328,11.662250028944328,3.0,-1.0
InSb2S4Cl,mp-556541,12,-4.13486451,4.241925353843078,-0.8654274282199999,408.72293024780345,1.5677,10.303442531279,11.827680700729283,2.0,1.0
Ag4Se(IO2)2,mp-556570,33,-3.795410270227273,5.988887808779094,-0.6266082160464014,918.5837667881616,0.7545000000000002,7.281811999999999,13.241643,3.0,-1.0
CuBi2(SeO3)4,mp-556635,14,-5.3963243286842095,5.417678660451807,-1.3536450220723686,606.4726828214699,0.0,4.483371,16.316782999999994,3.0,-1.0
Re2SCl12,mp-556726,11,-3.837913663333333,3.0384222904086764,-0.9440299328163332,907.1196481197348,0.6747,8.727585000000001,11.39863,0.0,1.0
NaW2(Br3O)2,mp-557030,12,-4.365274214545455,4.830029967017317,-1.016020093257576,310.13471204279944,0.0,9.21203627885024,11.270479292405007,2.0,1.0
CdSbS2Cl,mp-557049,62,-3.6043338885000002,4.532820729249766,-0.9539895464019998,489.06549695005896,1.6707999999999998,3.948322,12.713909,3.0,-1.0
K2Sn(AuS2)2,mp-557121,2,-3.939681372222224,4.572899649961282,-0.9763377837222228,522.2477198864116,1.7045,7.507442,9.355133315112194,3.0,-1.0
Cu6GeWS8,mp-557225,186,-5.0945836765625,4.806654282864693,-0.7220640965625007,617.8851845520105,0.8311999999999999,7.570303499116068,12.449461,3.0,-1.0
HgINO3,mp-557250,62,-4.513742603333333,4.776762654018851,-0.7608823410216671,541.6044021001806,1.9661,5.485165,12.946849,2.0,1.0
Tl2CS3,mp-557251,15,-4.477175023333333,5.300060187696193,-0.41566564656250016,323.9407365572592,1.829,6.576185857961513,9.524830949778636,0.0,1.0
Ag2NClO3,mp-557303,62,-4.695694629285714,4.678561123032568,-0.7516329753890473,444.642151217072,1.7106000000000003,5.150508,12.954917,3.0,-1.0
CrAg(PS3)2,mp-557592,13,-5.073913231000001,3.025844644643172,-0.6589017912559527,454.6157460044266,0.0,5.969653,10.679795,2.0,1.0
Hg2Pb(SI)2,mp-557605,127,-2.5740223942857137,6.841629858290648,-0.5291634280357143,899.3113160821075,1.993,4.710676,13.816989000000001,3.0,-1.0
Nb3SnS6,mp-557640,182,-6.941264082999999,4.52289089428733,-1.4261214653750007,433.0936770707759,0.0,5.850524511430835,14.610384,3.0,-1.0
KCu4AsS4,mp-557728,4,-4.2444079165,4.172262438318803,-0.6385775665499999,395.1801754056408,1.3220000000000005,6.4185940000000015,9.603533983131419,3.0,-1.0
KBa4Sb3O,mp-557761,140,-4.218063405,4.769357723959427,-1.393735465472222,675.2276010181978,1.0566999999999998,10.536405815793213,10.536405815793213,3.0,-1.0
Ti3O,mp-557812,149,-8.551409775833333,4.834658283147383,-1.5683743961458336,328.90353409522345,0.0,5.156308244446991,14.28434,2.0,1.0
Rb2(ReS2)3,mp-557824,15,-6.608791665681817,5.8807423082314845,-1.142192674659092,1041.3163960448653,1.3560999999999996,9.922317862238943,12.18340687213441,3.0,-1.0
K2Cd(AuS)4,mp-557832,72,-3.5563616940909086,6.393183400980291,-0.8171641230454549,574.9169770871415,2.0601,9.875419677578618,9.875419677578618,3.0,-1.0
Zn4Cu5(TeO6)3,mp-557936,15,-5.0765718535,5.916748418417478,-1.3636755529166664,701.713644761788,0.0,8.753173492039844,10.522923730614464,3.0,-1.0
In2Cu2SiS6,mp-558055,9,-4.472362773636363,4.103377232247195,-0.8391778626136372,467.1610270661623,0.4584000000000002,6.9080374439483885,12.105261463310285,3.0,-1.0
KCu(BiS2)2,mp-558063,36,-4.2312388225,5.28885887404528,-0.8710346094375003,407.447380678243,0.8553000000000002,7.260761129540138,14.444531,3.0,-1.0
Nb2Tl5S4Br9,mp-558099,71,-4.0192837464999975,5.419226385659488,-0.9875250811249998,629.723790468884,1.7504000000000004,10.34579595677945,10.34579595677945,1.0,1.0
MnBiS2Cl,mp-558130,62,-5.2494172995,5.268025673251269,-0.9991030013330352,458.3184575222635,0.8788,3.888064,12.399878999999999,3.0,-1.0
Tl2CuAsO4,mp-558338,14,-5.1342422325,6.859395509116291,-1.3262056187499995,591.8738940183953,1.4971,5.488868,12.381451951650662,3.0,-1.0
Cu4Te5(ClO3)4,mp-558364,85,-4.7801618688000005,4.757871242671179,-1.2570930343216002,855.7618286749213,0.0,6.396368,11.566707000000001,3.0,-1.0
AgBi2S3Cl,mp-558368,11,-3.95887541,6.488452106603947,-0.7752403813288095,336.52594669837146,0.9612000000000008,4.0284629999999995,10.914638115617759,3.0,-1.0
PtCI2O,mp-558381,15,-5.062403492,4.679781716375745,-0.5441276702500005,676.8829632623135,1.6101,7.365216933291577,13.73510324233644,0.0,1.0
In2Si(AgS3)2,mp-558407,9,-4.252949209545455,4.2238007433583835,-0.8500644197348479,523.5410084635971,1.4442,7.169283543713207,12.320272366592105,3.0,-1.0
AgHgSI,mp-558446,51,-2.40837163375,6.2880241129071415,-0.3750619211979167,493.75250024985087,1.8966,4.685474,10.370884,3.0,-1.0
Hg3Se4O5,mp-558456,2,-3.84093451,6.318512056124972,-0.8306833142187499,524.3530064986746,1.8769,7.9084179999999975,9.504796875659997,2.0,1.0
K2Ag2GeS4,mp-558500,70,-3.8985278705555553,3.523747712574194,-0.965094845759259,466.3725073226715,1.6796,7.531795417972861,12.651722755805116,3.0,-1.0
AgTeO3,mp-558637,14,-4.879771494,6.550947813132411,-1.1372008260833333,574.8261713517004,1.6612999999999998,6.024564,11.826692999999999,3.0,-1.0
Cu9Se4(Cl3O7)2,mp-558647,12,-4.602039657575758,3.9513413073351153,-1.031163040498031,556.6017660906532,0.0,6.322250272220247,11.956548329060311,3.0,-1.0
Li2TeS3,mp-558731,14,-3.9068640033333337,3.1873104936403656,-1.0101779593402782,495.3040433553949,0.9701000000000004,5.419119,11.579384,3.0,-1.0
TiTlPS5,mp-558747,2,-5.260178123125,3.4671219589401225,-1.1307555990662204,424.86566906342,1.1771999999999998,6.746944,9.40704604455942,1.0,1.0
CdBiS2Cl,mp-558849,62,-3.612447296,5.637428709860996,-1.009896339902,496.00232532659834,1.9197,4.009692,12.791389,3.0,-1.0
CsCu(BiS2)2,mp-558907,36,-4.199317155625,5.673369748525559,-0.8659875144288796,434.7456071518164,0.7114999999999996,7.477291986543058,14.791695,3.0,-1.0
Ag2Bi2S3Cl2,mp-559071,2,-3.730197536388889,5.894385992000152,-0.799991738525371,902.3886100216057,1.8583,7.317419,11.420754444770491,2.0,1.0
AgTeO3,mp-559257,14,-4.900223373999999,5.936118148559952,-1.1576527060833337,634.3634267220933,1.4215,6.643623,13.522097702018169,3.0,-1.0
RbBa4Sb3O,mp-559270,140,-4.1840316655555565,4.892431148849621,-1.374133156527778,689.7181798128297,1.0407000000000002,10.556733208084925,10.556733208084925,3.0,-1.0
Hg3AsS4Cl,mp-559355,186,-2.8871357394444437,5.782909368164028,-0.5853613011955553,482.6375726145612,1.537,7.589651620781878,9.674907000000001,2.0,1.0
AgPbBrO,mp-559470,129,-3.98714014375,5.909104663224649,-0.8801913732291666,230.97725830115803,0.1882999999999999,4.02718,14.241874,2.0,1.0
AgTeNO5,mp-559562,60,-5.4343490334375,4.913948826773738,-1.0397669753495835,445.3452655559123,2.0326,5.369333999999999,14.528989000000001,3.0,-1.0
CdSbS2Br,mp-559588,12,-3.496671275,4.866044489168799,-0.7697118202500004,258.12512774240156,1.5721999999999996,6.893026094213338,9.844935337065907,3.0,-1.0
Ta4S9Br8,mp-559724,107,-5.480139585714285,4.006163098043026,-1.1094999837202388,684.5853259267259,1.3014,10.229345291848253,10.229345291848253,0.0,1.0
Au2Se3O10,mp-559824,36,-4.882395434,5.301026280818232,-0.91625195396875,495.43845935902283,0.9805,8.861956,9.293098753320393,2.0,1.0
Hg3(SBr)2,mp-559832,12,-2.096976015,6.342582166582428,-0.5068511708928571,864.7080041490125,1.6179,9.725360895974454,10.336810583676428,3.0,-1.0
InSb2S4Br,mp-559864,12,-4.066893678125,4.443736604734177,-0.7495721509375,423.3818454968058,1.5361000000000002,10.513302111653076,12.138976416051724,2.0,1.0
V4S9Br4,mp-559911,129,-5.454973719117646,3.037171367436284,-1.0937831754779417,887.8675327616579,0.6585000000000001,7.33443,11.002488,2.0,1.0
CuSeO3,mp-560049,2,-5.164600566666667,4.48954949817296,-1.0981776558854164,422.76803039607694,0.0,4.813137,10.735720734977134,3.0,-1.0
AgHgSBr,mp-560067,51,-2.51678834625,6.111590113044167,-0.4552501524479169,456.9257933520102,1.9335,4.677544,9.963082,3.0,-1.0
Cu3WO6,mp-560273,205,-5.99610685625,6.405408166405528,-1.3582329270000002,975.7268867049864,0.00010000000000021103,9.918426,9.918426,3.0,-1.0
Ta2Te4Br10O,mp-560333,2,-4.2138899605882365,4.557288970243012,-0.8666140871323532,614.8141954400478,1.0536,7.455005,9.681925657570606,1.0,1.0
In2Ag2GeS6,mp-560386,9,-4.079572867727273,4.393444683859895,-0.7496231838257575,537.0050259378745,1.4101000000000004,7.2291317677692115,12.412554079100769,3.0,-1.0
CdSb6(S2I)4,mp-560411,2,-3.7421110763157897,4.5045652987949465,-0.6064865186842108,592.4360959388665,1.7385999999999997,7.565503,9.146432132958676,2.0,1.0
Ba2V(CuS2)3,mp-560493,15,-5.227649905,4.4032752002053845,-1.3895326598958335,534.4644392001387,0.6846000000000001,8.83402148192962,10.758843886926376,3.0,-1.0
AuSeClO3,mp-560549,2,-4.380166513333333,4.926911402086226,-0.920059779892292,484.4908108876168,1.546,4.4935870000000016,10.903498846164704,2.0,1.0
Cu2SeO4,mp-560561,14,-5.134819186071428,4.896356836156849,-1.0381068014062496,366.3359724179535,0.0,6.028487,10.913420198181413,3.0,-1.0
Si2Ag6O7,mp-560584,12,-5.300756606,6.0440800326217134,-1.463048449916666,672.0445599629521,0.17580000000000018,8.182266259898965,10.856467117620586,3.0,-1.0
BaHgRuO5,mp-560702,176,-5.82816648875,6.445645054847969,-1.7374954645312493,802.2097396990421,0.3148000000000002,8.620700999999999,10.365908293329436,3.0,-1.0
Cu2As4S3Cl2,mp-560845,11,-4.166822596818182,3.8021141195020673,-0.552135459172273,518.7429485562719,1.5025999999999995,6.271619,11.99361662688282,2.0,1.0
AgSbPbS3,mp-560848,14,-4.1353360937499986,5.872831798699932,-0.6198071080902778,602.8477418339007,1.0987999999999998,6.070778,12.902128999999999,3.0,-1.0
Cs8Tl8O,mp-561017,148,-2.1006074970588235,5.64609365769655,-0.3181305390998985,798.2894184965784,0.15379999999999994,12.142009515017355,12.14201023765834,3.0,-1.0
CsCu5S3,mp-561033,51,-4.129825987222223,5.356132556280548,-0.5953365069228924,339.0630529193051,0.32840000000000025,3.9149529999999997,9.607127,3.0,-1.0
Sn2SbS2I3,mp-561134,63,-3.45280249125,5.2902616760081935,-0.4945321751562504,504.7433811528839,0.8162000000000003,7.5523284969845585,16.047895999999998,2.0,1.0
Cs2Sn2Hg3S8,mp-561185,2,-3.4404698506666667,4.7115283788471665,-0.8734759517241376,479.8567405224108,1.6243,6.966703,9.533809944180238,3.0,-1.0
K2PbO3,mp-561277,193,-4.714610644166666,5.411755285450537,-1.6028704157916664,409.1944744727712,1.1544,6.119244211348734,12.618379,3.0,-1.0
As2Pb4S6ICl,mp-561299,31,-4.203095236071428,5.69183616887654,-0.7899075301435724,778.0080918990958,1.8434,6.799005,11.775915,2.0,1.0
WSBr4,mp-561582,14,-4.441569915,4.105836488860012,-0.6117661655208332,866.3311789423941,1.3225,6.481749,13.654624990341,0.0,1.0
Ag3AsS3,mp-561620,15,-3.7520803117857136,5.206250544547159,-0.3841151666964291,631.1673805523214,1.7201,6.886085052030145,17.215056508163606,3.0,-1.0
Cs2AgAsS4,mp-561622,2,-3.862821824375,3.7269888928444006,-0.966016996878592,514.034123624775,1.7442000000000002,6.9344470000000005,11.343493781504927,3.0,-1.0
Ba(RuO2)6,mp-561944,85,-7.3146788946052625,6.58445919887109,-1.603452874342106,943.9393257012672,0.0,9.502003,9.967,3.0,-1.0
K(TeO3)2,mp-561973,12,-5.279187512222221,4.769099859650626,-1.6268548878333335,543.5823244719437,1.1127000000000002,7.296857608494906,12.196873438374359,3.0,-1.0
Rb3(Cu4S3)2,mp-562230,12,-4.0430176911764715,4.801512779030738,-0.715182704191177,331.0214865370816,0.0,9.11988131805195,10.014529104602072,3.0,-1.0
K4(CoO2)7,mp-562471,176,-5.437067710600001,3.8902844784413935,-1.4162222339800008,676.9016180470841,0.015899999999999914,7.845310207357577,12.699150999999999,3.0,-1.0
TlIn5S7,mp-562480,11,-3.9936146761538462,5.275099597229741,-0.8835376993750008,631.4199731975954,1.0799000000000003,3.949425,17.694334168061427,3.0,-1.0
Ta2Ni3S8,mp-562537,55,-6.440544589615384,5.450735742709948,-1.1451688792307697,484.0783490927253,0.7452999999999994,3.3463010000000004,14.220045,3.0,-1.0
Ti3SiC2,mp-5659,194,-8.7520152525,4.474908170164525,-0.8244566741666676,145.2457128657895,0.0,3.0751024752502154,17.735913,3.0,-1.0
Ca19Ag8N7,mp-5669,225,-4.048835562647058,3.685483349778381,-0.6243017079409799,776.0817040848376,0.0,10.31511674624393,10.31511674624393,3.0,-1.0
Ba7Al4Ge9,mp-567067,42,-4.0188119105,4.823897072272632,-0.5176944192499995,593.1029439055717,0.0,6.801601389103893,14.020288411158488,3.0,-1.0
KNb(AgSe2)2,mp-567177,40,-4.52100635,4.320563558036231,-0.6634486119635419,510.07341630102223,1.5675,8.324363,10.443109250812233,3.0,-1.0
CaAlSi,mp-567191,187,-4.111752267333333,2.3665890086603194,-0.3862556906666669,333.7969816692025,0.0,4.206541797275405,21.78218,3.0,-1.0
Tl4CrI6,mp-567325,128,-3.1206142227272724,6.259204577480179,-0.5530019427272724,865.3707734411987,0.0,9.329671000000001,9.941904,3.0,-1.0
Ba5P9,mp-567378,43,-5.0048928725,4.065537166268624,-0.8395766651530617,788.620274762533,0.0,9.45378322844606,12.443937514742027,3.0,-1.0
Cs2Cd3Te4,mp-567386,72,-2.6221989611111107,5.0624074289073775,-0.7185681006513407,730.4497422194107,1.5586999999999998,10.921442985741123,10.921442985741123,3.0,-1.0
Li15Au4,mp-567395,220,-2.548838698684211,4.669792522445063,-0.3525561113157898,634.3621256638568,0.0,9.375326017596775,9.375326017596775,3.0,-1.0
Sr3MgGeN4,mp-567398,52,-5.626741134166667,4.5673051537418745,-0.8376699768911107,604.7373020117869,1.4132000000000002,5.9925690000000005,10.412329,3.0,-1.0
Sc4Si7Ni12,mp-567443,71,-6.489821669710143,6.137003804228188,-0.7216166818840581,877.2762458791483,0.0,11.564545924134205,11.564545924134205,3.0,-1.0
MnSbSe2Br,mp-567478,62,-4.8371698115,5.2561887780317775,-0.4532783703685347,523.8244505724729,0.6442000000000005,3.9837809999999996,13.014892999999999,3.0,-1.0
PtCl2,mp-567484,58,-3.5840830866666664,5.12692445944772,-0.7245465321733331,172.30087543459263,1.3506,3.45126,11.386837,1.0,1.0
PbI2,mp-567503,186,-2.92177061,5.134591412308309,-0.6682131766666668,298.18277383738547,2.4543,4.661863434495695,15.842831,2.0,1.0
SiC,mp-567505,186,-7.53037177625,3.16966675016912,-0.2043244162499996,168.04619985657337,1.8873999999999995,3.095674583844045,20.248251,3.0,-1.0
Rb2Hg2PdBr8,mp-567515,12,-2.465705562307692,4.713452757898962,-0.8623422542307689,464.246634663444,1.5168,7.173133182462528,10.789745884690703,3.0,-1.0
TaI4,mp-567537,2,-4.0455407105,5.003483898755189,-0.4547750925000002,914.075366316324,0.5979000000000001,7.6486100000000015,11.269417011299346,0.0,1.0
MgGa2,mp-567539,55,-2.665177657083333,4.661453762034262,-0.11302063875000012,466.6611689416868,0.0,4.1391599999999995,16.376093,3.0,-1.0
CdSb2Se3Br2,mp-567556,12,-3.357371444375,5.114825926524519,-0.4895614752539066,488.6787037206649,1.1505999999999998,11.065205425606614,12.773380688919673,2.0,1.0
In6Se7,mp-567596,4,-3.6235302834615375,5.856983196348209,-0.4711085354927883,704.0388305945372,0.5022000000000002,4.134327,18.02767185013764,3.0,-1.0
Sr4CN4,mp-567601,62,-6.166244755555558,4.024837405646512,-0.8557342595762955,690.6760087558201,1.217,3.839092,14.556281,3.0,-1.0
TlCoCl3,mp-567620,61,-3.75886998,4.876319543464816,-1.1125652389560003,1007.0883926954808,0.0,5.8892809999999995,14.016409,1.0,1.0
Y7FeI12,mp-567678,148,-4.79757715,4.773954772718811,-1.1964045473333336,765.5942295923218,0.0,9.724513879732292,9.724514265428633,3.0,-1.0
CrI2,mp-567687,36,-4.529940866666666,4.361270116912747,-0.29624996666666625,232.8685002627801,0.0,4.48004715131995,14.657472,1.0,1.0
Y3Ni4B4C3,mp-567692,139,-7.431772432142857,5.930811809391283,-0.5090674861904755,162.60618920663913,0.0,12.928103664124679,12.928103664124679,3.0,-1.0
TiAl2,mp-567705,141,-5.558130466666667,3.5363905916855463,-0.4292492411111121,191.26034521531673,0.0,12.462191855750895,12.462191855750895,3.0,-1.0
KTiBr3,mp-567718,173,-4.131640095333333,3.5303362740080293,-1.3483059785999998,921.9412147481579,0.0,5.928911,13.399815946274225,3.0,-1.0
Cs2In3,mp-567752,119,-2.156239239,4.7424264510154766,-0.14706805217241375,427.36296459286245,0.16280000000000028,9.850871011408637,9.850871011408637,3.0,-1.0
Al45V7,mp-567919,12,-4.6167720125,3.1009487627152783,-0.15257480403846174,841.1322169821773,0.0,11.084075096541207,11.10639025546397,3.0,-1.0
Hg3AsSe4Br,mp-567949,186,-2.6005718866666667,6.404485316487483,-0.2460461143750001,556.116884405411,1.3128,7.876904894455942,10.349617,2.0,1.0
K3P5RuSe10,mp-568011,11,-4.453569591052632,3.6096125077374817,-0.5256153500155076,1069.8825977998006,0.9436999999999998,7.424637,12.683726029129215,3.0,-1.0
Tl3SiTe3,mp-568020,2,-3.408271825714286,6.773470915547281,-0.273961004285714,1004.1828235377992,1.0749000000000004,9.661241,10.7196121688861,3.0,-1.0
ICl,mp-568024,14,-1.83472912,3.063118790771765,-0.44579732413,704.1213615392578,1.5271,8.485485,9.344245888014932,0.0,1.0
Cs(WCl3)3,mp-568039,147,-5.304303169615385,4.5698209865920525,-1.3770385101746951,729.2867837484036,0.0,8.716567,9.8290405760685,3.0,-1.0
Mn4Si7,mp-568121,54,-7.2169049325,5.259800311822498,-0.4329027487382446,525.7740055199317,0.8097999999999992,5.5022480000000025,17.366084,3.0,-1.0
RbVBr3,mp-568136,165,-4.223544615333333,3.8570478912552377,-1.2285006628333337,971.5680956615556,0.5946000000000002,6.552728,13.084593305269713,3.0,-1.0
Y4CdRu,mp-568156,216,-6.3359541025000015,5.920830509566692,-0.3254267911111117,638.4375216598544,0.0,9.665206418374002,9.665206418374002,3.0,-1.0
IrCl3,mp-568208,70,-4.092148224375,5.112800972923184,-0.94215238682,387.88688624872907,1.9771,6.2236887744032465,11.729417615335596,3.0,-1.0
CdI2,mp-568233,166,-1.9020135466666668,5.061527710378949,-0.5783752166666668,240.2920826022224,2.3865000000000003,14.981793951875387,14.981794181382046,2.0,1.0
Na4CaSn6,mp-568234,194,-3.147918945454545,4.34989170072614,-0.3004971384848483,644.6083612334141,0.0,7.232024000000001,10.145015499610881,3.0,-1.0
NbBr5,mp-568245,2,-3.9172137916666654,3.7150390767243184,-0.8695575016666665,440.20707428757714,1.5990000000000002,6.964438021369518,10.119512181252098,0.0,1.0
Sr2GeN2,mp-568338,64,-5.5912907735,4.765913966637515,-0.8099038261186656,384.50695679706115,0.05200000000000005,6.353697398753028,12.266591,3.0,-1.0