pretty_formula,task_id,spacegroup.number,final_energy_per_atom,density,formation_energy_per_atom,volume,band_gap,min_abc,max_abc,Dimension,Dim
VP3(Pb3O8)2,mp-1216403,1,-6.6365135934615385,6.916754334405472,-2.2577330713736266,394.4558201645469,3.2602,5.939106,9.671079054123018,3.0,-1.0
TlBiF4,mp-1216550,123,-4.526900135,7.4714156888909615,-2.5379188307933336,108.76077162177229,3.3696,4.041372,6.659086,2.0,1.0
Tl4BrCl3,mp-1216569,47,-3.012759035,6.805707416987635,-1.1571226112225004,244.91837554521413,2.3462,3.9441,11.138552,2.0,1.0
Tl5BrCl4,mp-1216608,65,-3.016415895,6.7799734908741565,-1.1703563603040004,304.5882632908593,2.3283000000000005,3.936418,14.175041339948535,2.0,1.0
TlSbWO6,mp-1216623,46,-6.442035828888887,7.09074137733431,-1.9340609952777776,283.8216518890548,2.6966,7.38258940240313,7.38258940240313,3.0,-1.0
TlBiF4,mp-1216759,26,-4.506914766666667,7.705727536482358,-2.5179334624600003,210.90725868092247,4.0710000000000015,3.8575730000000004,8.222627000000001,2.0,1.0
TlV3Cd4O12,mp-1216804,9,-5.9082102765,5.572695954081197,-1.94786448375,595.2668128422653,2.3383,7.198271224762928,9.559039047761914,3.0,-1.0
TiNb(BiO3)3,mp-1216832,107,-7.225481984285714,8.000427806005778,-2.3770613267559533,189.2309695778233,1.788399999999999,12.951407793067556,12.951407793067556,2.0,1.0
TiNbBiO6,mp-1216838,1,-8.11849506,5.921307352988952,-2.856181262314815,250.00748777560142,2.3923,5.373339,7.659287658722709,3.0,-1.0
TiNb(BiO3)3,mp-1216863,4,-7.290189505357143,7.930857522505032,-2.441768847827381,381.7818455247355,2.4484000000000004,5.437686,13.022270301829247,3.0,-1.0
TiFe2Bi2PbO9,mp-1216934,143,-6.621034665333334,7.857165796417849,-2.0161544863055547,392.5494922199379,1.8905000000000003,5.652867746912624,14.184895000000001,3.0,-1.0
V3Bi(PbO4)3,mp-1216962,9,-6.758703511842106,5.875469853734955,-2.1175624931578945,664.3873079873123,2.7415000000000003,9.502730871502148,9.532869578657257,3.0,-1.0
V2GePb5O12,mp-1217012,6,-6.4355642060000005,6.801413005869002,-1.9886611575,684.8377757428035,2.77,7.47253,10.302471550594543,3.0,-1.0
TiBi2(O2F)2,mp-1217030,139,-6.502815388888887,8.042325109413184,-2.5584461911903693,117.24108933455037,1.2998000000000005,8.290154842352282,8.290154842352282,2.0,1.0
TiFe3Bi3PbO12,mp-1217154,1,-6.5626244985,7.426448901725423,-1.9907626844166668,277.60495734526785,2.0919,5.4513940000000005,9.697809977490072,3.0,-1.0
V2SiPb5O12,mp-1217159,6,-6.6489002167499995,6.6896412068550815,-2.161882860000001,674.1610558336695,2.6661,7.461581,10.199242215693086,3.0,-1.0
TiBi8W(ClO8)2,mp-1217203,44,-6.168404353214287,8.295393278722848,-1.9519314096376201,446.4819919707735,1.1829,14.926571130996598,14.926571130996598,2.0,1.0
Ti3Bi6WO18,mp-1217217,1,-7.081467425357142,8.228302862702089,-2.3651893247321434,377.2426284960878,2.2833999999999994,5.40779,13.066826640366818,3.0,-1.0
Ti2Sb2Pb4O13,mp-1217219,44,-6.75442579047619,7.745897310483827,-2.2737959863293655,294.9920946478119,1.2724000000000002,7.470857141481625,7.470857141481625,3.0,-1.0
Ti4FeBi3O14,mp-1217235,166,-7.559080077272728,6.762809455417164,-2.630516875492425,1078.652336814583,1.6193,10.255923833884397,12.472698716611776,3.0,-1.0
TiBi8W(BrO8)2,mp-1217238,5,-6.1456865825,8.417229308741458,-1.9018510986904755,457.5578041297145,1.3209,5.542121364970367,15.21690325832234,2.0,1.0
Ti3Fe(BiO3)5,mp-1217245,8,-7.050047575833332,7.629649800140721,-2.3601045545312496,323.05583639402636,1.7023,3.9680034978841694,20.706008616081395,3.0,-1.0
Ti3TePb4O13,mp-1217292,160,-7.019031439047619,7.5765671582516685,-2.40598304125,286.6699076351012,1.3832000000000004,7.424155589802856,7.424155690462652,3.0,-1.0
TePb3(ClO2)2,mp-1217378,38,-4.982278368999999,7.185074901401852,-1.6051177721519998,204.324740781097,2.0872,5.637003,7.006054357874197,2.0,1.0
TePb3(BrO2)2,mp-1217453,38,-4.877280674,7.535266808768212,-1.4235049644999995,214.420252371222,1.9601,5.692378,7.192129219618487,3.0,-1.0
Ti4FeBiPb4O15,mp-1217456,35,-7.3234619708,7.229273523925009,-2.533678948083334,350.30659964395204,1.9593000000000007,4.733237,13.849150251817507,3.0,-1.0
Ta2BiO6F,mp-1217779,74,-8.422330894,7.775319779989473,-2.9723176423689983,292.9565757465766,2.2249,7.449999497643808,7.449999497643808,3.0,-1.0
SrTiFeBiO6,mp-1217783,146,-7.1233284047500005,6.4701986126234905,-2.654728077500001,509.49913648057213,2.4193,7.986002742977303,9.759211839457427,3.0,-1.0
SrTiFe3(BiO4)3,mp-1217793,146,-6.66467926,7.273179472276719,-2.193975736750001,256.1536912580928,2.0649999999999995,9.870983211262848,9.870983264791457,3.0,-1.0
Ta12MoO33,mp-1217800,5,-9.554012605869564,7.100467594135552,-3.2558618437228266,653.716968650904,2.2819000000000003,11.457596887243024,17.96622000585301,3.0,-1.0
TaTlWO6,mp-1217830,46,-7.886101607222222,7.619552095962407,-2.5193738413888886,289.9217010435753,3.1898,7.430743174131441,7.430743174131441,3.0,-1.0
TaTiSbO6,mp-1217838,2,-8.447172343333332,6.522163706313576,-2.9631430434259265,227.39357362150662,2.4483,4.898731,8.695637820766514,3.0,-1.0
TaTiTlO5,mp-1217858,62,-8.421846168125,7.1112486837811515,-3.003939921822917,479.3423394821862,2.5943,3.8230180000000002,19.161487,2.0,1.0
TaNb(AgO3)2,mp-1217907,123,-7.591302695,7.543284764793217,-2.2814839460833327,128.90805800728566,1.3968,4.008597,8.022233,3.0,-1.0
TaTiAlO6,mp-1217913,102,-8.844750573888891,6.108677136108941,-3.403324097314816,191.25768333100172,1.9216,4.6267830000000005,8.934302,3.0,-1.0
TaTiGaO6,mp-1217916,102,-8.431478476666666,6.592572379801176,-3.0697720364814804,198.75082056290177,1.7425000000000002,4.678346,9.080803,3.0,-1.0
TaTiFeO6,mp-1217927,102,-8.649930668333333,6.270094456250702,-2.9872345195370382,403.2440839907848,2.0680999999999994,4.709406005255971,10.237880805319284,3.0,-1.0
TaTiCrO6,mp-1217930,102,-9.007239489444443,6.263021099886289,-3.1330939417592587,399.6176063239203,2.0846,4.691573000000959,10.220350602124569,3.0,-1.0
TaGaBi2O7,mp-1217939,74,-7.0725333877272725,8.88510397330974,-2.310206111931819,291.78328827561194,1.925,7.449502018877369,7.449502018877369,3.0,-1.0
TaInBi2O7,mp-1217945,74,-7.017047926363636,8.75728291305537,-2.279848993522728,313.1438026664032,2.1386000000000003,7.628900089668036,7.628900089668036,3.0,-1.0
TaFeO4,mp-1217946,35,-8.497633852222222,7.223712531905415,-2.7347267880555552,207.43115428333016,1.7945999999999995,4.7399585503167625,9.23303,3.0,-1.0
TaNb(AgO3)2,mp-1217947,18,-7.6100660675,7.685353462343997,-2.3002473185833328,506.10043886198235,1.7062000000000004,5.614271,15.851884,3.0,-1.0
TaMnNbO6,mp-1217948,18,-9.098753426111113,6.402688447472899,-2.9972054481239088,440.6762849635959,2.5687,5.140436,14.612776,3.0,-1.0
TaFe(PbO3)2,mp-1218012,225,-7.2708154810000005,9.843023480351617,-2.2214087347500007,126.0524260722787,2.2213000000000003,5.62801702074203,5.62801702074203,3.0,-1.0
Ta4FeCoO12,mp-1218072,65,-9.070262599166666,7.982959588232548,-2.9952394425,428.7355579886966,2.272,6.802928725813905,10.42035421964633,3.0,-1.0
Ta3Zn2Bi3O14,mp-1218076,166,-7.459244935,8.708195832881742,-2.49550677125,290.7202222969954,2.6551,7.316231534974888,7.316231741932796,3.0,-1.0
Ta6TiTl2O18,mp-1218099,5,-9.07266433851852,7.236114434162557,-3.1397961091049384,420.0184255631542,2.9582,7.618309707642044,8.347785645758101,3.0,-1.0
SrMnFeBiO6,mp-1218209,146,-6.544093431,7.2585638702409545,-2.116956673478184,115.15802752505155,1.3268999999999993,5.426978854501002,5.42697925880411,3.0,-1.0
Ta6Mn2FeO18,mp-1218233,12,-9.314233807777779,7.791974741901895,-3.082109373101124,656.1186063059988,2.291,10.53330145128772,11.5822907921599,3.0,-1.0
SrCaPbO4,mp-1218368,10,-5.994033732857143,6.209587761073959,-2.509692293095238,213.3416106773204,1.9280000000000002,3.4870010000000002,10.086764617590172,3.0,-1.0
SrCa3(PbO4)2,mp-1218448,6,-6.040301887857143,6.0189390906308216,-2.533380546190476,206.9830060624234,1.9634000000000005,3.4554440000000004,10.030648127924586,3.0,-1.0
SrCa3(SnO3)4,mp-1218487,6,-6.3957031445000005,5.547064258983038,-2.6610754475833334,261.8414957222117,2.1645000000000003,5.638286,8.050727,3.0,-1.0
SrCaNiWO6,mp-1218491,7,-6.694834838999999,6.228414944097862,-2.5556011294166674,248.59919667638863,3.0296,5.569253589754555,7.8967653398638475,3.0,-1.0
Sr3Ca(SnO3)4,mp-1218522,6,-6.3502764439999995,5.928861454973444,-2.647260609749999,271.6107150213629,1.8788000000000005,5.74771,8.143654,3.0,-1.0
Sr5Zn(PbO4)3,mp-1218569,157,-5.74873340952381,6.60483169237328,-2.330015470873015,331.1362189765809,1.1954000000000002,3.587825,10.323391371936696,3.0,-1.0
Sr8SnPb3O16,mp-1218629,123,-5.9222775389285705,6.101822902171517,-2.472491446369048,461.8893805308805,1.8012999999999997,6.026541,12.7175,3.0,-1.0
Sr3Ta4Ti4O21,mp-1218665,15,-8.89729627828125,6.050789433359648,-3.4835307410807284,831.0431950607127,2.3313,9.09450434855919,11.583707666126244,3.0,-1.0
Sr2V3Bi3O14,mp-1218693,2,-6.834249235681818,5.751591104004514,-2.4390628625378783,680.775472617597,2.9583000000000004,7.218812466938138,14.408718423602693,3.0,-1.0
Sr2TaFeO6,mp-1218705,225,-7.7463658885000015,6.517889781025892,-3.101592305583334,258.8575427809367,2.0867,5.677824208195248,9.834280005038698,3.0,-1.0
Sr2FeSbO6,mp-1218824,12,-6.4531342075,5.775725886831554,-2.581238263583333,258.0865830584989,1.809,5.667849000345987,7.987565228789747,3.0,-1.0
Sn2Sb2Pb4O13,mp-1219056,44,-5.997593253809524,8.160728605534871,-1.8870510841071428,308.8270340257912,1.3278,7.588429986893008,7.588429986893008,3.0,-1.0
Sn3TePb4O13,mp-1219089,160,-5.881218098095237,8.077215289978357,-1.8233011519642863,312.5936878103622,1.2006000000000006,7.650764212526027,7.6507643270196874,3.0,-1.0
ScSb3Pb4O13,mp-1219278,160,-6.310596602857142,7.806456366638043,-2.0837531648214287,307.8024903480321,1.4178000000000006,7.578122558125397,7.57812320751992,3.0,-1.0
ScNb(PbO3)2,mp-1219284,225,-7.586470942,7.728622005581427,-2.65316483225,139.28212332698166,2.6602999999999994,5.818398450508695,5.818398450508695,3.0,-1.0
ScSb(PbO3)2,mp-1219286,44,-6.614173082000001,8.183038088598023,-2.2780973522500005,137.402690098499,3.1069999999999998,5.79142253180296,5.79142253180296,3.0,-1.0
ScMn(BiO3)2,mp-1219299,15,-6.9995533535000005,7.5444328386158475,-2.292814667811517,540.4376175548921,1.7645,5.687392032011157,10.06686207754914,3.0,-1.0
ScMn3(BiO3)4,mp-1219320,5,-6.8188419960000015,7.783514271866647,-2.0546839495922757,264.04825694163367,0.7962999999999996,5.6535167132214275,9.946714142321225,3.0,-1.0
Sc2(WO4)3,mp-1219450,13,-7.941466325,6.436003358753522,-2.6806249576470584,430.0601072049303,3.4497,5.807238,11.046308591872851,3.0,-1.0
Rb2Ti(WO4)3,mp-1219784,5,-7.300966191111113,5.679773219982304,-2.4884147912962957,281.3426265803944,2.7470000000000003,7.322160647663297,7.3235542476576905,3.0,-1.0
Hg3(PO4)2,mp-12199,14,-5.326428366346153,6.896174783212312,-1.8108178611263737,762.5502247574507,1.3956,6.528862999999999,11.69084,3.0,-1.0
P3Pb5O12F,mp-1220061,173,-6.525398271190474,7.113133347589993,-2.3743683334240133,625.5968854838626,3.6882,7.3621050000000015,9.905604256491827,3.0,-1.0
P3Pb5BrO12,mp-1220062,173,-6.412664888333333,6.941752683683809,-2.2513313121768697,670.1803602050627,3.2231000000000005,7.433885000000001,10.202876166569109,3.0,-1.0
P2Pb4SO12,mp-1220066,122,-6.468791631052633,6.086984967965508,-2.253100289224624,608.2412892090323,3.8547,9.244939297895144,9.244939297895144,3.0,-1.0
P2Pb3O8,mp-1220067,143,-6.6320609864102575,6.444101543601352,-2.329765856959708,627.3636696903425,3.2019999999999995,7.350072999999999,9.927697420542438,3.0,-1.0
Pb12BrCl7O8,mp-1220145,6,-4.713497888928573,6.942586834800675,-1.537391747243572,703.7847470504985,2.3612,5.9387050000000015,12.097747098881676,3.0,-1.0
Pb12Br7ClO8,mp-1220190,6,-4.603955648214286,7.074202437461832,-1.3457618858307143,753.2951592511853,2.7204,5.9786589999999995,12.47091402513649,3.0,-1.0
P6(Pb2O5)5,mp-1220209,143,-6.586172359756098,6.7577662997225545,-2.299640101528745,653.0895446582431,2.8017000000000003,7.4957119999999975,10.03031559817676,3.0,-1.0
NbTlWO6,mp-1220301,74,-7.548955199999999,6.5710395804363655,-2.3773910552777773,291.6860842071129,2.7937,7.447789233802606,7.447789233802606,3.0,-1.0
NbFe(PbO3)2,mp-1220306,225,-7.00596135,8.237644538739401,-2.13220186275,132.87058384290984,1.9832,5.7277134200350845,5.7277134200350845,3.0,-1.0
NbIn(PbO3)2,mp-1220373,225,-6.693581869000001,8.315407043139572,-2.11835429675,143.40459866135842,2.7902,5.875245593075408,5.875245593075408,3.0,-1.0
NbSb3O8,mp-1220489,7,-6.88981733875,5.875232683073271,-2.1853479629166657,331.34940051502775,1.9024,4.9682949999999995,12.907086252869195,3.0,-1.0
Nb4Pb3O13,mp-1220499,160,-7.973819734,6.480094392437223,-2.6369791108125002,307.81479879060316,2.5947,7.556579600384555,7.55657961095124,3.0,-1.0
NbInBi2O7,mp-1220526,74,-6.745272052272727,7.81563115615529,-2.1677524457954562,313.4610785753498,2.1106,7.631733051688522,7.631733051688522,3.0,-1.0
Nb4AgBi5O18,mp-1220551,8,-7.28348741,7.626286631604192,-2.3152757617559527,394.6266523611711,2.1394,5.6081835894293794,12.936997697823285,3.0,-1.0
NbBi2O5F,mp-1220571,19,-6.9117106844444445,7.964817423216154,-2.408349446937778,508.5869974668016,2.1814,5.45937,17.02851,3.0,-1.0
Nb3Fe(BiO3)6,mp-1220715,1,-7.089527586071428,7.882002560313895,-2.2394167897321435,395.3176655794428,2.3255,5.492667,13.238868395880704,3.0,-1.0
NaBi(WO4)2,mp-1220818,82,-6.774766626666668,7.243834130093875,-2.0760780252777784,166.80166064271341,3.4385000000000003,6.930423181191753,6.930423181191753,3.0,-1.0
NaBi3(ClO2)2,mp-1220820,38,-5.020429655,6.799280895490654,-1.772917757485334,191.6744554518921,2.3702000000000005,5.568328,6.776946099143553,2.0,1.0
NaBi3(BrO2)2,mp-1220821,38,-4.916420811,7.135876664459821,-1.5922938008333332,203.3210179251784,2.2883,5.63169,6.999685260424571,2.0,1.0
NaBi3(IO2)2,mp-1220823,38,-4.787071398999999,7.302014013917358,-1.4855271738333335,220.07160453414696,1.8963,5.710986,7.3233029556186615,2.0,1.0
Nb2Bi3Pb2ClO11,mp-1220834,123,-6.734745794736843,7.756722629754464,-2.142420621947895,307.971834630426,1.1235000000000004,3.944293,19.795782,2.0,1.0
NaAs3(PbO3)4,mp-1220871,173,-5.8612294172500015,6.2485724436775,-1.8067003504166663,674.2251877558018,3.3998,7.443549000000001,10.226973750720687,3.0,-1.0
NaTa4Bi5O18,mp-1220909,8,-7.7564574932142865,8.928842151874656,-2.5915320387797616,386.76654323625326,2.9275,5.5503350598370185,12.957939711543693,3.0,-1.0
NaV2Bi3O10,mp-1220913,1,-6.485259066875,6.013405896917447,-2.094932693489583,251.78622234743827,2.8972999999999995,5.6439580000000005,7.242727011705536,3.0,-1.0
NaV3(PbO3)4,mp-1221016,173,-6.585689815,5.848218955711605,-2.119742598416667,679.5274940821345,2.8719,7.412864999999999,10.288336572728603,3.0,-1.0
NaNb4Bi5O18,mp-1221019,8,-7.348672740714287,7.328681262195443,-2.4346719419940483,391.41994454744713,2.7619,5.6039615737677035,12.8997213340485,3.0,-1.0
Nb2PbO6,mp-1221063,6,-8.232998464222222,6.0608393589099645,-2.745304023944444,669.8897347539091,1.9514,3.947256,13.073604297917885,3.0,-1.0
NaCa2Ta3O10,mp-1221096,119,-8.5283056675,5.849643126613741,-3.3185656953645832,228.7946305735842,2.1908,14.953465081870055,14.953465081870055,3.0,-1.0
Na3Nb6Bi5O24,mp-1221291,1,-7.422884666842108,6.584472675288455,-2.530833885526315,518.3251751673176,1.8727,5.5592440000000005,16.84774708427385,3.0,-1.0
Na4Li5(WO3)10,mp-1221439,1,-6.819749852653063,6.574159259099593,-2.161699812602042,617.5838416258433,1.1694,8.830232,8.865599175065102,3.0,-1.0
MnTe(PbO3)2,mp-1221598,225,-6.007851699,8.368858644854168,-1.6555072788115168,274.98247140852254,1.0191,5.794592993614737,8.189524000001771,3.0,-1.0
MnFe3(BiO3)4,mp-1221875,1,-6.3179524535,7.98052086506173,-1.7579530622807575,260.17314357245255,0.9879999999999995,5.6826120000000016,9.692914901979954,3.0,-1.0
Mn2Bi3Sb3O14,mp-1221942,166,-6.397060319545455,7.4286234091626175,-1.921690508124108,296.4240191410443,1.6518999999999997,7.413929680430008,7.414003963655943,3.0,-1.0
MgTi(BiO3)2,mp-1222010,146,-6.781555273,7.517971370218285,-2.5065719230833325,129.46184372696607,2.7861,5.727438815773243,5.727439114395367,3.0,-1.0
MgTi2Pb4WO12,mp-1222091,139,-7.000624899,8.47734383029768,-2.4107766760833336,259.4762367030358,1.8608,9.009271174869195,9.009271174869195,3.0,-1.0
MgTe(PbO3)2,mp-1222171,1,-5.636765434,8.327397808149264,-1.8724786407500005,132.06734851643827,2.282800000000001,5.708671,5.71368957923967,3.0,-1.0
Mg2Nb3Bi3O14,mp-1222190,166,-7.325534456363636,6.7367759518234935,-2.5703574239772733,290.42823986573444,2.3099000000000003,7.33379116451239,7.333791526710107,3.0,-1.0
Mg2Ta2Ni2O9,mp-1222197,165,-7.511908516333332,6.759397524444593,-2.687949987083333,330.1166630582505,3.9639,5.194062311049128,14.129361,3.0,-1.0
MgTiNb2(PbO3)4,mp-1222224,25,-7.3002632085,7.778696064255866,-2.5254154059166667,272.9840680662411,2.4839,5.7790099999999995,8.038076,3.0,-1.0
Mg3Te2Pb6WO18,mp-1222251,164,-5.905074521333332,8.57428029008283,-1.9586602100833328,395.68577746651056,2.5524000000000004,5.7149303803152325,13.989363,3.0,-1.0
MgTi2Nb2(PbO3)5,mp-1222255,8,-7.3602590696,7.705894787954597,-2.566575407816666,340.8704339312145,2.1461999999999994,5.836178343445735,12.114026741261926,3.0,-1.0
LiBi3(ClO2)2,mp-1222452,38,-5.111672967,6.801543132199591,-1.8047340044853333,187.6925324054348,2.5888000000000004,5.514286,6.7605818550352605,2.0,1.0
LiBi3(IO2)2,mp-1222461,38,-4.870649281,7.353328052719643,-1.509677990833334,214.91171353749766,1.8663000000000003,5.650912,7.296635920944529,3.0,-1.0
LiBi3(BrO2)2,mp-1222483,38,-5.003526268,7.200755988161639,-1.619972192833334,197.78813518854062,2.3773,5.576564,6.950477377128926,3.0,-1.0
Mg2TePb4WO12,mp-1222496,26,-6.03320363975,8.624682571452066,-1.995725569499999,531.7165925208737,2.9472,5.732007,11.479511,3.0,-1.0
LiW3O9F,mp-1222570,9,-7.110474324285714,6.418627221590346,-2.2989142079123797,373.2893392028869,2.5633,7.491938759289613,8.534724213805388,3.0,-1.0
KYTa2O7,mp-1223270,74,-8.89647368,6.6261452785581545,-3.3499206253106064,301.6750458847255,2.1343,7.5482444887967155,7.5482444887967155,3.0,-1.0
KNaTi4(BiO6)2,mp-1223389,38,-7.4780404085,5.570265072566898,-2.841286734733333,257.4189058413189,2.3229,5.766051614889518,7.774023,3.0,-1.0
KNaP6(PbO3)8,mp-1223429,143,-6.549910215750001,6.029107297664442,-2.3873623621940485,630.5794497526002,3.3254,7.350913999999999,9.952539591079457,3.0,-1.0
KNb4Bi5O18,mp-1223445,8,-7.329788112857143,7.275877411314416,-2.4230820737678576,397.937003902528,2.6455,5.615665009702859,12.945874730721176,3.0,-1.0
KTaW2O9,mp-1223468,1,-7.818689420769231,6.322562965528691,-2.557657210326924,576.5308851762877,1.4573999999999998,3.9094300000000004,13.051036504377,3.0,-1.0
KNaAs6(PbO3)8,mp-1223483,143,-5.8616895215,6.153776307326324,-1.8122667864083333,688.9580579266017,3.4563,7.504336,10.296151832661414,3.0,-1.0
KV3(PbO3)4,mp-1223484,173,-6.592490766999999,5.762930708276203,-2.136756213899999,698.8672022668175,2.9840000000000004,7.540297,10.34517357515368,3.0,-1.0
KNb5Pb2O15,mp-1223583,38,-8.117643597608696,5.71257764799241,-2.7816783663804348,673.2300411625201,1.9198,3.967589,13.032187430247655,3.0,-1.0
KAs3(PbO3)4,mp-1223607,173,-5.8617958265,6.133954791375438,-1.81747942315,695.5451683757332,3.465,7.525982000000001,10.330367031400966,3.0,-1.0
KTa5Pb2O15,mp-1223615,26,-8.744335898695653,8.225725868382089,-3.0265288000760866,645.2734351171198,2.4729,3.9720169999999997,12.761082,3.0,-1.0
KNbW2O9,mp-1223705,1,-7.590867644358973,5.496536409823047,-2.4649487100705127,583.3789741977004,1.7785,3.953094,13.048442698730831,3.0,-1.0
InSb3Pb4O13,mp-1223746,160,-5.9030995428571424,8.0973346129238,-1.8467696941071416,311.0721684667016,1.5587,7.5861509800290685,7.586151531312367,3.0,-1.0
K4Ta3NbO12,mp-1223769,166,-8.080911000499999,6.226093187642549,-3.02770003335,262.47540131615204,1.8717,9.879967532494833,9.879968025260252,3.0,-1.0
KNb5Pb2O15,mp-1224036,26,-8.10696974326087,5.790677939483457,-2.771004512032609,664.1500227251604,1.787,3.9824699999999997,12.938925999999999,3.0,-1.0
KNaV6(PbO3)8,mp-1224220,143,-6.588379892000001,5.822875054695532,-2.127539007158333,687.0788706273595,2.9391,7.490634,10.291500482334976,3.0,-1.0