pretty_formula,task_id,spacegroup.number,final_energy_per_atom,density,formation_energy_per_atom,volume,band_gap,min_abc,max_abc,Dimension,Dim
Li5BiS4,mp-766390,61,-4.044742505,3.0614586407668902,-1.3120816939166668,1613.9492701098804,1.8901,11.408799,11.995372,3.0,-1.0
LiCuS,mp-766467,60,-4.082495364861111,3.8646357004907728,-0.9221222303472224,1057.5378310747647,1.2911,5.299856,16.117852,3.0,-1.0
LiCuS,mp-766480,60,-4.055545642777776,2.988224295951397,-0.8951725082638889,1367.7013677080388,1.3302,4.91038,21.818189999999998,3.0,-1.0
Li3Sb17S27,mp-767137,1,-4.336014146170212,4.230657277275943,-0.7255776337101071,1160.429717551085,0.5070000000000006,8.840266,15.492859482366965,3.0,-1.0
Sb17S27,mp-767208,1,-4.305697527272727,4.288500794745145,-0.57924872078125,1136.714963493589,0.0,8.776095,15.386681018285556,3.0,-1.0
Ba2YI7,mp-768295,14,-3.68939671575,3.856570287868742,-1.5921466079166668,2156.127325504264,3.0154,8.386602,18.833875,3.0,-1.0
Ba2YI7,mp-768426,14,-3.678398182250002,3.781921984591037,-1.5811480744166673,2198.6853812112204,2.638,9.454081,17.733072684487286,2.0,1.0
Cs4Zr3Se14,mp-768674,15,-4.775809998333334,4.32554832728964,-1.0535494237874594,1467.0270186907162,1.5144,12.471926718628602,14.992010971607645,3.0,-1.0
Ba6SrI14,mp-768732,64,-3.3477650847619045,4.0676579205439936,-1.7030278065079365,2194.8429454307293,3.0892,8.835089,15.860176708033302,3.0,-1.0
BaSrI4,mp-768827,161,-3.276928253888889,4.143571369044311,-1.6595111633333337,1761.4552670389382,3.1710000000000003,14.432691201821823,14.432692005267935,3.0,-1.0
Rb5FeO4,mp-768830,61,-4.289669515625,3.8762231250565446,-1.5274360038750003,1875.2613438607248,1.5483000000000002,7.110077,21.622942000000002,3.0,-1.0
Rb8Fe2O7,mp-768833,14,-4.419189637205882,4.025997744249295,-1.5346051300735295,1497.0897372079733,1.6964,10.19477,12.864621000000001,3.0,-1.0
Rb5FeO4,mp-768853,61,-4.23683286475,3.783282411631472,-1.4745993530000008,1921.3293102967066,1.818,11.988255,12.778942,3.0,-1.0
Li8Nb2S9,mp-769036,2,-4.965083505131579,2.5633784371062327,-1.4529307780153513,1373.1291706909644,1.085,7.2530199999999985,18.70398679197954,3.0,-1.0
Rb4SnO3,mp-769368,61,-4.109747925,4.109666482386145,-1.5261598560937495,1643.9600941585834,2.0456000000000003,6.866484,20.146338,3.0,-1.0
CaPbI6,mp-771691,43,-2.64443653125,4.1233502929076025,-0.7866462012500004,1624.8862127079578,1.783,12.417556888910156,15.78661427369672,3.0,-1.0
CaPbI6,mp-771814,43,-2.642856615625,3.840623500711878,-0.7850662856250001,1744.5019122205053,1.8246,12.698449720258019,16.44070656138902,3.0,-1.0
Ca3Pb3I14,mp-771827,11,-2.8813555475,4.614656568154532,-0.9568096745,1812.512761642395,0.0,4.509780999999999,24.3075206835465,2.0,1.0
Sr2YI7,mp-771829,14,-3.5543087589999995,4.735605970422486,-1.5029565665,1616.4633006091967,2.6895,7.807375,17.304528,3.0,-1.0
Sr2YI7,mp-771830,4,-3.58713981,4.3014498912758405,-1.5357876175,1779.6169781866834,2.964700000000001,8.310701,14.911827831982405,3.0,-1.0
Ca3Pb3I14,mp-771877,11,-2.867740843,4.628128436392221,-0.9431949699999996,1807.236777313184,0.0,4.455408,24.508421474898988,2.0,1.0
As5Pb3S10,mp-773040,4,-4.392979711944445,4.538738550505063,-0.5505668284027784,1927.1382388143154,0.4681000000000002,8.607762,25.590737598364864,3.0,-1.0
Bi19O30,mp-773884,143,-5.684581598367347,8.74264790621895,-1.5768139258673464,1690.6573821251438,0.0,9.002574000000003,14.72580815653226,3.0,-1.0
Zn(Bi19O30)2,mp-773918,143,-5.687762125555558,8.837312124344054,-1.6087623728787872,1684.837676012535,0.9178000000000006,8.999157,14.703231627837464,3.0,-1.0
Li5BiS4,mp-774732,137,-4.0322267819999995,3.0118733584185904,-1.299565970916667,1640.520151661238,1.2581000000000002,5.939082,16.620004,3.0,-1.0
Li5SbS4,mp-775817,61,-4.0326214152499995,2.2867091657216116,-1.276063911166667,1654.0694997861187,1.5475,10.656436,12.610421,3.0,-1.0
Li8Sb7S19,mp-775925,15,-4.140259816176471,3.397358864938373,-0.9002245490012254,1483.0200099102124,0.0,8.251648439164928,22.409330814029694,3.0,-1.0
Ba2YI7,mp-775932,62,-3.65982283375,3.900048336442545,-1.5625727259166666,2132.0906468524586,2.4686000000000003,8.743109,16.30213,3.0,-1.0
Ba2YI7,mp-776032,15,-3.70177885175,4.551527103378256,-1.604528743916667,1826.9157563029446,2.9025,13.083094214383154,13.590480291867907,3.0,-1.0
Li5SbS4,mp-776253,61,-4.0063420357499995,2.2945128116975133,-1.249784531666667,1648.4440037199988,1.6083,6.203618,17.61006,3.0,-1.0
Li5SbS4,mp-776255,137,-4.01300006725,2.33979807586849,-1.2564425631666674,1616.539446250092,0.8237000000000001,5.933886,16.505305,3.0,-1.0
Li5SbS4,mp-776268,61,-4.0447793272500006,2.384339152963914,-1.288221823166667,1586.3413898982028,1.6744,11.291222,11.920774,3.0,-1.0
B10H13,mp-776402,61,-4.902160612826087,0.9332791798062576,-0.1669217299446374,1725.3511408251034,3.2060000000000004,10.729184,14.805902,0.0,1.0
Li5FeS4,mp-776781,61,-4.528479961875,1.9914131847207208,-1.3378222937916675,1459.6370294242147,0.7011000000000001,11.149858,11.45711,3.0,-1.0
Rb2CoO3,mp-778414,14,-4.74976071125,3.767457176565812,-1.4276969868750002,1469.6671379930785,0.4699,6.6657470000000005,16.935535335790306,3.0,-1.0
Li3Cr2(PS4)3,mp-778433,14,-5.161040848875,2.1990984361838404,-1.0136108725357147,1819.8406161567777,1.2946,9.708397999999999,19.351704550054524,3.0,-1.0
LiCr2(PS4)3,mp-778530,14,-5.186147274444443,2.024060215351155,-0.7899942859193116,1931.6630059475424,0.0,9.932119,19.19949300704445,3.0,-1.0
Na3CuO2,mp-778612,19,-4.1163700696875,3.0511765578772385,-1.3606210267708327,1432.5338328646485,1.5675,10.964774,11.888575999999999,3.0,-1.0
Mn(NO3)4,mp-780939,2,-6.207793194117648,1.8362376507282585,-0.8996325650079501,1095.8777690853108,0.4176,7.6832410000000015,12.79824519381423,0.0,1.0
S,mp-83,14,-4.0984271325,1.6086536116725931,0.03802273437499997,1853.556507077604,2.5623,6.67754,22.92695600776492,0.0,1.0
Ba(GaS2)2,mp-849286,205,-4.677771718214286,3.812431406677696,-1.5538972464285723,2116.989547145625,2.8999,12.840233,12.840233,3.0,-1.0
B6H10C2SBr,mp-849797,19,-5.151832270187501,1.5013453068178624,-0.3499725179037497,1866.4174582830587,4.5168,9.748286,19.355303,0.0,1.0
Ba2YI7,mp-849802,4,-3.7191962215,4.498263155879294,-1.6219461136666666,1848.5482712440871,2.9089,8.346976,15.184473,3.0,-1.0
Cu2(SO4)3,mp-851127,61,-5.621776879485294,3.2174143779127533,-1.5296963756249995,1714.6397708763745,0.0,8.41060701168251,24.01084702908027,3.0,-1.0
Ag7PSe6,mp-8594,198,-3.406660060357144,6.349408178842534,-0.10547100673575674,1317.896466641145,0.4411999999999998,10.963783,10.963783,3.0,-1.0
CsSi,mp-866482,142,-3.19713221625,3.481382305668656,-0.036774020215517116,1228.6235364098047,1.2115,12.364118677745983,12.364118677745983,3.0,-1.0
Cs9AlO4,mp-866492,140,-3.4236234928571427,2.9127141990999124,-1.3674192747413791,1467.5842002954416,0.0,12.488364533266035,12.488364533266035,3.0,-1.0
CsGe,mp-866501,142,-2.9507435828125,4.1738747743063715,-0.19152846927801725,1308.3909654136555,1.2037,12.623800647829125,12.623800647829125,3.0,-1.0
KSr2Cd2Sb3,mp-866639,62,-3.0280959109375,5.067462041203642,-0.6878278242291671,1054.4170111475676,0.1988000000000003,4.905399,16.575817,3.0,-1.0
Cs2MoSe4,mp-866654,62,-4.6720839085714285,4.113925129860934,-0.8692133821767237,1094.0074322361204,1.2267,7.610664999999999,13.477162,3.0,-1.0
Sr17(Li2Hg3)3,mp-866669,229,-1.67282609515625,4.786163431498778,-0.3319560391666667,2315.166221484281,0.0,14.434487077831168,14.434487077831168,3.0,-1.0
Cs4P2PdSe8,mp-866688,14,-3.912588429333333,3.999723066991967,-0.7422314398411326,1105.7210271199763,1.4224,7.7295820000000015,13.884282999999998,3.0,-1.0
Ti13Si31Ni40,mp-867049,191,-6.676755749345237,6.3294622454457,-0.7001891060515878,2015.198629162912,0.05120000000000147,7.881083,17.183066285004926,3.0,-1.0
Ba3MoN4,mp-8863,61,-7.085817900625,5.241897967913814,-1.0342623668149995,1429.1882202290442,1.853,10.51962,12.389868,3.0,-1.0
Sn,mp-949028,223,-3.979950051521739,4.796116732256333,0.029621803478260964,1890.6210514926486,0.7334,12.365210000000001,12.365210000000001,3.0,-1.0
Ag8GeS6,mp-9770,33,-3.5981472616666665,5.9717793366985,-0.3900529228055552,1254.599304070796,0.6087000000000002,7.626161,15.313245000000002,3.0,-1.0
LiS4,mp-995393,1,-3.9167505360000003,0.22277547787999635,-0.7565740691666661,2015.540888789589,2.1585,12.210871000000001,12.929439069616516,0.0,1.0
Y8Cu3(SnS7)3,mvc-14380,4,-5.8826003814285714,4.116884220087983,-1.6257177618273813,1558.0382827834558,0.0,9.648236,19.047048,3.0,-1.0
Y8Cu3(GeSe7)3,mvc-15166,4,-5.427866707285714,5.4163493362594854,-1.1046491783586312,1703.3314469429415,0.0,10.282767,18.553532999999998,3.0,-1.0