pretty_formula,task_id,spacegroup.number,final_energy_per_atom,density,formation_energy_per_atom,volume,band_gap,min_abc,max_abc,Dimension,Dim
Y(Mg4Al3)4,mp-971834,217,-2.675826805862069,2.276504869985859,-0.02003846540229894,584.6808737418893,0.0,9.123894594166844,9.123894594166844,3.0,-1.0
SrMg3,mp-971944,225,-1.6383393775,2.3401706628219388,-0.01575902666666651,113.91247796225979,0.0,5.4412093086474815,5.4412093086474815,3.0,-1.0
Rb3BP2,mp-9720,15,-3.782506943333333,2.7255419483261525,-0.3745793248015872,401.08444074757097,1.5859,6.7347749073456775,9.433870078890527,3.0,-1.0
Sr3Li,mp-972285,139,-1.6490398275,2.3438929166882407,0.09530182916666674,191.14145425242413,0.0,7.255833383234277,7.255833383234277,3.0,-1.0
Sc3Cd,mp-972876,194,-5.11137789,4.4050491661184,-0.13130362124999986,186.42970190922543,0.0,5.252623000000002,6.401829644315287,3.0,-1.0
Sc2AlCu,mp-972884,225,-5.470195535,4.01969577488346,-0.34276535749999937,74.53962377498324,0.0,4.7239003908219726,4.7239003908219726,3.0,-1.0
ScBe13,mp-972891,226,-4.091894945,2.134693331246574,-0.1672637771428574,252.211489053046,0.0,7.091856751232362,7.091856751232362,3.0,-1.0
Sc2AlAg,mp-972907,225,-5.1717869825,4.605365392663384,-0.3610194716666655,81.04142093956997,0.0,4.8574389206626165,4.8574389206626165,3.0,-1.0
Sc2AlCd,mp-972914,225,-4.6935638775,4.5372359361319035,-0.3602129274999992,83.92088434434069,0.0,4.914300205364951,4.914300205364951,3.0,-1.0
MgCu,mp-972916,51,-2.9390775375,4.665666636846309,-0.08933417749999961,62.5334079326688,0.0,3.159259,4.461318,3.0,-1.0
K,mp-972981,63,-1.102020035,0.8847490924390605,0.008378911999999959,146.7630882980953,0.0,4.673221417536837,7.6503619999999986,3.0,-1.0
ScH3,mp-973053,225,-4.5435554525,2.944243220669791,-0.5306356802149992,27.060338912107053,0.0,3.3698927282262265,3.3698927282262265,3.0,-1.0
Mg5Sc,mp-973147,8,-2.3769598833333334,1.9793981851825388,0.012018342500000223,139.66268145977043,0.0,6.180770542419528,7.577041389536222,3.0,-1.0
Na,mp-973198,166,-1.3146522166666668,1.0405154780169257,1.480297366166875e-16,110.06682022928898,0.0,9.263838248032883,9.263838318728633,3.0,-1.0
BaNaP,mp-9732,189,-3.655245101111111,3.6526237246905193,-0.7729421317460309,260.8908753293685,0.8556000000000004,4.699766,8.006192294816058,3.0,-1.0
MnBe3,mp-973292,221,-5.2739536825,3.9306086983008033,-0.1789674161637933,34.631280107557416,0.0,3.2595389999999997,3.2595389999999997,3.0,-1.0
Mg5Hg,mp-973295,155,-1.4641727383333334,4.022129902064772,-0.07999263583333338,132.98539690706522,0.0,6.0274744880008395,6.027474787965938,3.0,-1.0
NaLi3,mp-973316,194,-1.71280288875,0.7523624696342363,0.0475523154166666,193.3983098352617,0.0,5.301354,6.490342821642398,3.0,-1.0
Li2MgGe,mp-973325,225,-2.7897958375,2.9046616275259893,-0.2795074279166663,63.3576597666647,0.0,4.474776772315017,4.474776772315017,3.0,-1.0
Mg,mp-973364,194,-1.58695233,1.7596736078110835,0.013327720000000154,91.74292740326406,0.0,3.2037164827999374,10.321287,3.0,-1.0
LiMg2,mp-973374,63,-1.7605242516666666,1.4250834878810037,-0.05736326277777781,129.45852853274957,0.0,5.066114,8.293947576600782,3.0,-1.0
LiSiB6,mp-973391,64,-6.1284995140625,2.3409131611305263,-0.20217607510416613,283.4370816732598,1.6991000000000005,6.293096639964224,8.430525,3.0,-1.0
LiMg2,mp-973455,12,-1.742861175,1.4629119866582043,-0.039700186111111264,126.1109438297995,0.0,5.731237029420612,7.134949336952642,2.0,1.0
KRb3,mp-973508,139,-0.988081645,1.4111231822949073,0.024918646125000055,347.731596541913,0.0,8.827371180996865,8.827371180996865,3.0,-1.0
Li(Mg4Al3)4,mp-973924,8,-2.4817217875862068,2.0567698011487683,0.016909716781609456,580.9707145061096,0.0,9.078146449862553,9.116099019666525,3.0,-1.0
Li(Mg4Al3)4,mp-973970,217,-2.4782723996551725,2.0525908728869315,0.020359104712643874,582.153529342821,0.0,9.110729275978514,9.110729275978514,3.0,-1.0
Na,mp-974558,225,-1.31163779,1.0531892557913491,0.0030144266666667363,36.24743588261939,0.0,3.714760019119404,3.714760019119404,3.0,-1.0
Rb,mp-974620,223,-0.94413740875,1.5549808254789264,0.03639666375000007,730.1575351201852,0.0,9.004761,9.004761,3.0,-1.0
K3Tl,mp-974627,221,-1.4098563175,2.5923745510613614,0.013356137749999776,206.0501703948893,0.0,5.90642,5.90642,3.0,-1.0
K3Tl,mp-974641,225,-1.41167559,2.613864475358456,0.01153686524999986,204.356125961854,0.0,6.611513457918089,6.611513457918089,3.0,-1.0
RbGaH2,mp-974682,62,-2.90871861625,3.224051820093315,-0.2866928918099996,323.8754812110052,1.4268,4.542619999999999,9.529562,3.0,-1.0
KSr3,mp-974738,139,-1.4454594325,2.151526394193496,0.09925124424999998,233.05015220232917,0.0,7.657052626578847,7.657052626578847,3.0,-1.0
Rb3Na,mp-974862,139,-1.014425595,1.558421684154114,0.049638013541666526,297.7007296856549,0.0,8.329953388998705,8.329953388998705,3.0,-1.0
Rb3Na,mp-974866,221,-1.0081164,1.5628315722293251,0.05594720854166657,296.86069873084784,0.0,6.670897,6.670897,3.0,-1.0
Rb3Na,mp-974883,225,-1.011000795,1.5808521088622731,0.053062813541666635,293.47670786518006,0.0,7.459268020523328,7.459268020523328,3.0,-1.0
Na,mp-974920,139,-1.31001461,1.0302600564047593,0.004637606666666683,37.054149371547155,0.0,3.780809500503431,3.780809500503431,3.0,-1.0
Rb3Hg,mp-974951,221,-0.843029525,2.991588058399916,-0.031708879375,253.6630642536535,0.0,6.330223999999999,6.330223999999999,0.0,1.0
Rb3Hg,mp-974990,225,-0.851142195,2.986936289924526,-0.039821549375000036,254.05811179773602,0.0,7.109122884615372,7.109122884615372,3.0,-1.0
Rb3Cd,mp-975019,221,-0.91186072,2.4347388218027315,0.054262274374999975,251.5385691641383,0.0,6.312501999999999,6.312501999999999,0.0,1.0
Rb3Cd,mp-975028,225,-0.9069383775,2.4482448201797262,0.059184616874999985,250.15093036311632,0.0,7.072490510709224,7.072490510709224,3.0,-1.0
RbNa3,mp-975109,194,-1.18511284625,1.299737363481451,0.04600983437500017,394.61641729544226,0.0,6.557049,8.336198659065234,3.0,-1.0
Rb,mp-975129,194,-0.970480615,1.5682892113012328,0.010053457499999974,180.99036812043133,0.0,5.050682070635807,8.192657,3.0,-1.0
RbZn4P3,mp-975140,123,-3.0826497675,4.2876294261409225,-0.30022900540178554,170.41557769246668,0.4590999999999998,4.0808550000000015,10.233094,3.0,-1.0
Rb,mp-975204,63,-0.968692965,1.5545701242488268,0.011841107500000005,182.5876087834029,0.0,5.108438629602984,8.184475,3.0,-1.0
RbNa2Sb,mp-975275,225,-2.3261778675,3.324759940819602,-0.3914679310416669,126.4634695776089,0.5682,5.634127837545044,5.634127837545044,3.0,-1.0
RbNa3,mp-975298,139,-1.180296055,1.3376346103757983,0.05082662562500029,191.71816347439582,0.0,6.8782973811955825,6.8782973811955825,3.0,-1.0
LiCa2Mg,mp-975368,225,-1.914350635,1.4703944355333265,-0.03424996583333306,125.80799316632105,0.0,5.624376835032481,5.624376835032481,3.0,-1.0
Rb,mp-975519,139,-0.96390686,1.5603450688293747,0.016627212499999988,90.95591973308235,0.0,5.109555586918592,5.109555586918592,3.0,-1.0
Li3Al,mp-975868,139,-2.4477683025,1.1782876039523007,-0.07968219500000018,67.3700577344792,0.0,5.191820262429257,5.191820262429257,3.0,-1.0
Li3Cu,mp-975882,139,-2.44612199,2.3194214191671763,0.010371827500000208,60.40214139277878,0.0,4.829388732364791,4.829388732364791,3.0,-1.0
Li3Cd,mp-975904,139,-1.8362969175,2.971308802329028,-0.17388232749999988,74.45885861004001,0.0,5.257563786022952,5.257563786022952,3.0,-1.0
LiAl3,mp-975906,139,-3.36660533,2.2294784580209583,-0.08019274083333361,65.45813344957932,0.0,4.97579347724672,4.97579347724672,3.0,-1.0
Li3Ca,mp-975929,225,-1.88439413,0.9632590429376198,0.04869798999999997,104.98576726214615,0.0,5.295193172546021,5.295193172546021,3.0,-1.0
NaLi2Pb,mp-975997,225,-2.45974742,4.638487224331075,-0.2484611649999997,87.3756223403352,0.0,4.980830468193231,4.980830468193231,3.0,-1.0
Li3Ga,mp-976023,225,-2.4029838025,2.3584385068811287,-0.21426777687500032,63.751999420666635,0.0,4.484041285362124,4.484041285362124,3.0,-1.0
Li3Ga,mp-976025,139,-2.3940549425,2.32450983316232,-0.20533891687500014,64.68252712005814,0.0,5.060689891816233,5.060689891816233,3.0,-1.0
Li3In,mp-976055,139,-2.3509014,2.9951548237244547,-0.23128831750000026,75.20051309154351,0.0,5.329543654189634,5.329543654189634,3.0,-1.0
Li3Ca,mp-976075,139,-1.8874487825,0.9700665850693077,0.04564333750000005,104.24901883181695,0.0,5.911638553480076,5.911638553480076,3.0,-1.0
K3Rb,mp-976115,194,-1.056256885,1.0808806528324195,0.021675843374999948,623.0019636617499,0.0,7.80854,9.598303049757288,3.0,-1.0
Li3Mg,mp-976139,25,-1.85387636,0.92896715394215,-0.02211419749999988,80.66679933679481,0.0,3.084965,5.250380000000002,3.0,-1.0
K2RbSb,mp-976148,225,-2.2069928975,2.926045686026689,-0.3744095958750002,161.9791410039323,0.6879,6.118684073061626,6.118684073061626,3.0,-1.0
LiMg,mp-976239,38,-1.80335651,1.2755559765962672,-0.048755051666666965,122.02961993115116,0.0,4.957374,7.617093998607409,3.0,-1.0
LiMg,mp-976244,8,-1.7951047433333331,1.2703756665370347,-0.04050328500000008,122.52722964165264,0.0,5.7746904901063765,7.01947344001044,3.0,-1.0
Li3Mg,mp-976254,221,-1.8614582675,0.9321398260747312,-0.029696104999999976,80.39223826867902,0.0,4.3159,4.3159,3.0,-1.0
Li3Mg,mp-976256,225,-1.8591663975,0.9323848545222099,-0.027404234999999888,80.37111138610817,0.0,4.844009548674321,4.844009548674321,3.0,-1.0
NaCa2In,mp-976261,225,-2.2639903225,2.898233628721891,-0.2446063958333337,124.88204898527864,0.0,5.610544412178911,5.610544412178911,3.0,-1.0
LiMg,mp-976262,12,-1.7861526066666666,1.2645007872871872,-0.0315511483333335,123.09649198312368,0.0,5.685811843549257,7.189935353680171,3.0,-1.0
LiCa3,mp-976272,139,-1.908252415,1.4054005040887312,0.07317821166666683,150.26254450633243,0.0,6.665268321200055,6.665268321200055,3.0,-1.0
Li3Pd,mp-976281,139,-3.030267465,3.5538611926903427,-0.30360486249999985,59.454199529788504,0.0,4.711634412782469,4.711634412782469,3.0,-1.0
Li3Ag,mp-976408,139,-2.2966050725,3.1073134234724904,-0.15677392166666634,68.77219514239512,0.0,4.831359217040377,4.831359217040377,3.0,-1.0
Li,mp-976411,194,-1.9061253275,0.5744766835932253,0.002797539166666585,80.25252888718995,0.0,3.071070314540193,9.825363000000001,3.0,-1.0
Li3Zn,mp-976412,225,-1.8501864525,2.1601095222764,-0.10355840000000004,66.28904845535371,0.0,4.5427509471904814,4.5427509471904814,3.0,-1.0
Li3Zn,mp-976414,139,-1.8458110625,2.1531175335006787,-0.09918300999999996,66.50431412271348,0.0,5.041762277722741,5.041762277722741,3.0,-1.0
Na3Au,mp-976765,139,-1.9943516575,4.418440286241687,-0.18989210999999995,99.94407168484501,0.0,5.266826179232519,5.266826663844369,3.0,-1.0
Li2Mg,mp-976843,12,-1.8380467716666664,1.032210087283718,-0.032004843888888836,122.8645333298797,0.0,5.945211651449339,7.017424806139642,3.0,-1.0
K2PtC2,mp-976876,164,-5.440541243999999,4.048710376380808,-0.09148784319999947,121.93551518486765,1.6843,5.181850226378701,5.243604,3.0,-1.0
Li2Mg,mp-976885,155,-1.8379144266666667,1.0265272291723035,-0.03187249888888891,123.54471178983326,0.0,5.90391403041152,5.9039140959394905,3.0,-1.0
Na(Mg4Al3)4,mp-976925,8,-2.4378697293103455,2.064568523414456,0.04026968367816055,591.6842262459758,0.0,9.136467147181344,9.172271271755813,3.0,-1.0
Li5Mg,mp-976944,8,-1.8797976616666665,0.8074561865715391,-0.02231526444444428,121.35446102174907,0.0,5.85167084070362,7.23966178177358,3.0,-1.0
Li2Mg,mp-976982,63,-1.8321014233333333,1.0423865906742342,-0.02605949555555576,121.66504424282516,0.0,5.009274,7.7793977364467635,2.0,1.0
Na3Ca,mp-977062,225,-1.407984385,1.1918919564211454,0.07940474750000015,151.92426947790747,0.0,5.989364142277544,5.989364142277544,3.0,-1.0
Li5Mg,mp-977122,38,-1.8677152583333327,0.8020057948320539,-0.010232861111110957,122.17917994044608,0.0,4.978075,8.011591196263698,3.0,-1.0
Li3Ag,mp-977126,194,-2.28906520625,3.1031084390855876,-0.14923405541666668,137.73077500998014,0.0,4.7036440000000015,5.814775364929672,3.0,-1.0
Na3Bi,mp-977189,225,-2.33285247,4.035837843201215,-0.3743547300000001,114.3619655571392,0.1934,5.448356743991715,5.448356743991715,3.0,-1.0
Li2Mg,mp-977207,194,-1.8254765983333328,1.0178334684183987,-0.01943467055555548,124.59996119952295,0.0,3.0934331285353487,15.035085999999998,3.0,-1.0
Li2Mg,mp-977218,63,-1.814976115,1.0233635395049998,-0.008934187222222315,123.92664559248621,0.0,5.036729,8.058496793179794,3.0,-1.0
LiMg2Pd,mp-977380,225,-3.046556435,3.938713476452015,-0.4742152408333333,68.28604689431394,0.0,4.587918099945552,4.587918099945552,3.0,-1.0
Na3Tl,mp-977403,139,-1.6492086625,3.7026518841323695,-0.07280625499999971,122.59123959790598,0.0,6.173267068913429,6.173267068913429,3.0,-1.0
Ca2CdIn,mp-977453,225,-2.3448641275,4.437329016280279,-0.4234208150000001,115.02973953793486,0.0,5.4589407182925145,5.4589407182925145,3.0,-1.0
NaSrAs,mp-9775,189,-3.426919656666666,3.71240367687976,-0.8725023649999998,248.96168109727586,0.8069000000000002,4.6156,7.8919959804579864,3.0,-1.0
MgSc2Al,mp-977580,225,-4.7871091775,2.827087929183932,-0.2844106549999994,82.93530413995052,0.0,4.8949862907436215,4.8949862907436215,3.0,-1.0
MgSc2In,mp-977586,225,-4.546940595,4.212973716390909,-0.2927150974999995,90.27382995155777,0.0,5.035303146188718,5.035303146188718,3.0,-1.0
K2AgP,mp-9778,63,-2.9601529125,3.0926612851898163,-0.343492972809524,233.06853090287004,1.6906,6.050528,6.302600516939418,3.0,-1.0
MgZn,mp-978268,51,-1.51822967,4.1032455386524465,-0.08821783999999999,72.61256993646889,0.0,3.148879,4.952332,3.0,-1.0
Mg3Al,mp-978271,221,-2.1373769575,1.9786068048583128,-0.0007729625000001408,83.83783203216748,0.0,4.3766989999999995,4.3766989999999995,3.0,-1.0
Mg3Cd,mp-978273,221,-1.486887165,3.479528330244797,-0.05595468749999988,88.44332732737398,0.0,4.455417,4.455417,3.0,-1.0
MgB7,mp-978275,74,-6.1750523675,2.6183283474130516,-0.13054956177083274,253.63360881890225,1.4634999999999998,7.263972390938032,7.263972390938032,3.0,-1.0
Mg3Cu,mp-978279,44,-2.2321934825,2.9668936378844286,-0.0071817775000000425,76.37578195384211,0.0,5.679056295702923,5.679056295702923,2.0,1.0
Mg3Ga,mp-978280,139,-2.025647625,2.8461423689986187,-0.0684137118749999,83.22000120641388,0.0,5.347009125637995,5.347009125637995,3.0,-1.0
Mg3Ga,mp-978281,221,-2.04201161,2.87641500687575,-0.08477769687499981,82.34415785466034,0.0,4.350551,4.350551,3.0,-1.0
Mg3In,mp-978283,139,-1.95161944,3.3753422560679383,-0.06348847000000002,92.3574431687923,0.0,5.502238597386432,5.502238597386432,3.0,-1.0
MgNi,mp-978288,166,-3.8287620566666662,4.744470186034029,-0.1385536916666664,87.14698180904848,0.0,4.954065402579179,4.954065800583598,3.0,-1.0
Mg3Pb,mp-978293,139,-2.164446845,4.778601632633136,-0.03607504000000007,97.3384969912952,0.0,5.675487412267426,5.675487412267426,3.0,-1.0
Mg3Sn,mp-978294,221,-2.341383445,3.5105233900424744,-0.13878044374999998,90.64198220122812,0.0,4.492035,4.492035,3.0,-1.0
Sc3Al,mp-978498,221,-5.93330626,3.091581742261297,-0.2475604737500001,86.93188981559717,0.0,4.4298910000000005,4.4298910000000005,3.0,-1.0
SiGe,mp-978534,186,-4.9830236625,3.821754688858552,0.04114727500000015,87.52975602564047,0.4089,3.9406186108854784,6.508731,3.0,-1.0
Sc3Sb,mp-978546,139,-6.2802007525,4.6348428232029315,-0.4985986137499996,91.94279017786077,0.0,5.770082400543688,5.770082400543688,3.0,-1.0
SnI2,mp-978846,136,-2.838484595,4.524724251448961,-0.4859522333333336,273.42318273664137,1.4398,4.69576,7.630706,3.0,-1.0
Ti3Be,mp-978963,194,-6.854882125,4.233875223575477,0.0015901037499999053,119.71073185058322,0.0,4.485772,5.55114560499164,3.0,-1.0
SnH4,mp-978992,11,-3.316692233,3.4915306281156218,0.07701146710400053,116.74964896025641,0.0,4.050112,6.2130412986185775,0.0,1.0
SrGaSiH,mp-979137,156,-3.7944684025,4.091701610414293,-0.4488115431966668,75.66167368360001,0.4169000000000001,4.202093867420027,4.947819,3.0,-1.0
YMg2Sc,mp-979435,225,-4.0689853975,2.9755654423834934,-0.06911031791666655,101.82988585511549,0.0,5.241594478532082,5.241594478532082,3.0,-1.0
SrAlGeH,mp-980057,156,-3.864497765,3.993334167002414,-0.5400423650716664,78.27935264356546,0.6964000000000001,4.2657904267689934,4.967268,3.0,-1.0
SrCaIn2,mp-980948,225,-2.72906818,4.721658501266745,-0.4294560316666667,125.66920429871271,0.0,5.6223078405907305,5.6223078405907305,3.0,-1.0
SrMg5,mp-981214,191,-1.6550356766666667,2.0684235226799057,-0.03988875944444459,167.90248190278464,0.0,5.059663,6.190168223699982,3.0,-1.0
YMg5,mp-981252,12,-2.429270445,2.3643132278671346,-0.01795855111111096,147.79287411002937,0.0,6.269865079387037,7.034321043325289,3.0,-1.0
Li5Mg,mp-981935,155,-1.880049326666667,0.8141987790577803,-0.022566929444444384,120.34949307276248,0.0,5.85294313232454,5.8529438140426375,3.0,-1.0
Y(Mg4Al3)4,mp-981988,160,-2.6726321403448274,2.2541428570565296,-0.016843799885057527,590.4811455468539,0.0,9.23914175202524,9.239141878475293,3.0,-1.0
Rb3Cd,mp-982205,139,-0.897214385,2.4151268548696314,0.06890860937499999,253.5811807523866,0.0,7.783570958833869,7.783570958833869,0.0,1.0
Na,mp-982370,194,-1.3106778975,1.0592921911493405,0.003974319166666795,144.15440929528592,0.0,3.7298926708472457,11.964779,3.0,-1.0
Li2Mg,mp-982380,8,-1.8407981116666667,1.030261309156551,-0.03475618388888909,123.09693622905668,0.0,5.878895265373077,7.290313359151647,3.0,-1.0
Na3Mg,mp-982637,139,-1.2946186575,1.2122093954974469,0.09144051750000017,127.77135093465859,0.0,6.291916272905418,6.291916272905418,3.0,-1.0
LiAl2Tc,mp-982666,225,-5.2220178875,4.671484480839161,-0.2818442783333328,56.484492052775224,0.0,4.306734259979597,4.306734259979597,3.0,-1.0
Na3Tl,mp-982773,221,-1.6544265825,3.688343850278304,-0.0780241749999997,123.06680252738896,0.0,4.97409,4.97409,3.0,-1.0
K3Cd,mp-982780,221,-1.017083755,1.8081506460964707,0.04643789524999997,210.95345213739571,0.0,5.952904,5.952904,3.0,-1.0
Na3Tl,mp-982873,225,-1.660657995,3.7001569003841412,-0.08425558749999973,122.67390180891664,0.0,5.5772792807647695,5.5772792807647695,3.0,-1.0
K3Cd,mp-983062,225,-1.0354621225,1.8545512025177564,0.02805952774999998,205.675432557846,0.0,6.625710747870753,6.625710747870753,3.0,-1.0
K3Hg,mp-983365,139,-0.9650776725,2.563621099234036,-0.056358371000000074,205.90417799648688,0.0,7.257777114117725,7.257777114117725,0.0,1.0
K3Hg,mp-983388,225,-0.969421415,2.5852652619133867,-0.0607021135000001,204.18032257995773,0.0,6.609616997530947,6.609616997530947,3.0,-1.0
Na3Pt,mp-983445,194,-2.54485712375,4.821115331933623,-0.04114103374999978,181.89601498598327,0.0,5.15895,6.3806603005877065,3.0,-1.0
Na3Cd,mp-983509,194,-1.2608324375,2.461204784192767,-0.04412083499999975,244.7493105934613,0.0,5.668517,7.060910490312778,3.0,-1.0
Ca2AgGe,mp-983566,225,-3.3544101625,4.401112499028847,-0.4877142579166662,98.34856242814676,0.0,5.1811679614390025,5.1811679614390025,3.0,-1.0
Al3Zn,mp-983585,221,-3.0991512325,3.763161823458562,0.02496654249999964,64.58024075900947,0.0,4.012052,4.012052,3.0,-1.0
Be3Fe,mp-983590,221,-5.1310522125,4.042916502750371,-0.20899184375000068,34.041772799308966,0.0,3.2409380000000003,3.2409380000000003,3.0,-1.0
Al3Ga,mp-983594,221,-3.5366086475,3.7167553376674367,0.02959710062499976,67.31394438903085,0.0,4.067882,4.067882,3.0,-1.0
Sr3(AlP2)2,mp-9843,15,-4.799481520555556,3.229836244992792,-0.998066091031746,453.1682777341197,1.3365000000000005,6.706308107928012,8.357909448452824,3.0,-1.0
Be3Ni,mp-984315,194,-4.53019506125,4.2124230488245695,-0.2806012424999995,67.58956679350227,0.0,3.70154,4.59180320914649,3.0,-1.0
RbCaAs,mp-9845,129,-3.3924213033333337,3.0998226546678103,-0.8440038508333334,214.77612519442798,1.2985,5.17641,8.015464,3.0,-1.0
Ca3SnH2,mp-984605,63,-3.4315811450000004,3.0072163336209954,-0.680607008706667,266.108752968536,0.11179999999999968,5.2680690000000014,7.217649022226698,3.0,-1.0
BaSr3,mp-984699,194,-1.72715613125,2.8836065346235973,0.019697516250000158,460.8993213647272,0.0,7.108453999999999,8.652669973531234,3.0,-1.0
Ca3Tl,mp-984744,194,-2.30949752,4.0315702355438585,-0.2148843649999997,267.40931044278125,0.0,5.683368,7.370892242009512,3.0,-1.0
CsRb2Sb,mp-984761,225,-2.0771191225,3.7995352369236137,-0.3307511832327585,186.0035844905661,0.6602000000000001,6.407354759626784,6.407354759626784,3.0,-1.0
Al3Fe,mp-984873,194,-5.0807489325,4.151306674196288,-0.15406633999999994,109.43277322920537,0.0,4.373849,5.3749753411870635,3.0,-1.0