pretty_formula,task_id,spacegroup.number,final_energy_per_atom,density,formation_energy_per_atom,volume,band_gap,min_abc,max_abc,Dimension,Dim
Zr2TeBr12,mp-28672,14,-3.723974094,3.4679800622392003,-1.0651860493333336,2430.2923795842075,2.4105,7.489576,19.690910349667465,1.0,1.0
Y4RuI5,mp-28840,134,-5.3782818935000005,5.1068947449400035,-1.1022481751666675,2838.5255204401233,0.1257999999999999,12.435596,18.355220000000006,3.0,-1.0
W3Br7,mp-28880,201,-5.482405281125,5.172488313541781,-0.4491187621249992,2852.9502850304716,0.0,14.182889999999999,14.182889999999999,0.0,1.0
Na3B5S9,mp-29000,142,-5.102759392794118,1.9602659295543885,-1.0675932571446085,2789.390257881505,3.5062999999999995,16.715749127623653,16.715749127623653,3.0,-1.0
Hg4Sb2I3,mp-29043,205,-1.7443526001388892,7.040272034448397,-0.18382351291666688,2691.843812702575,0.7152000000000001,13.910731,13.910731,3.0,-1.0
Cd4Sb2I3,mp-29044,205,-2.1761364591666665,5.315179821536961,-0.3404031963888888,2683.9587023094664,1.1297,13.897135,13.897135,3.0,-1.0
WS9Cl4,mp-29051,114,-4.458011882053572,2.161416023757217,-0.9415519407082138,3775.171548430243,1.2565,11.346876,18.240225,0.0,1.0
Cd(W3Br7)2,mp-29052,201,-5.387286736547619,6.017342440620222,-0.5497333965476182,2576.470192529065,2.0591,13.709082,13.709082,3.0,-1.0
Re3Te4Cl5,mp-29114,33,-5.386518758645834,5.394356917071705,-0.7051820787541665,3069.1429921623603,1.2409,9.432506,20.331877,0.0,1.0
Ta4P4S29,mp-29313,96,-5.549315080743244,3.300290310376228,-0.9600999427678572,3577.536222266369,1.0363000000000002,14.118298999999999,15.918451999999998,3.0,-1.0
Rb3GaP2,mp-29363,61,-3.19953486,2.9730639266887318,-0.4001566195238097,3468.0016436698797,0.8513,9.247146,25.127016,3.0,-1.0
Sb7F29,mp-29369,14,-4.617338646180556,3.896650712732847,-2.6701452417225,2391.993493707019,3.595,8.683518,20.35199856150869,0.0,1.0
K5GaSe4,mp-29377,61,-3.348191195375,2.9092588216770627,-1.0918175805624997,2653.2220231062893,1.9817,12.782463,15.909009,3.0,-1.0
KGaSb2,mp-29383,64,-3.4226319109375,4.334189590028795,-0.3235076785625002,2159.855654760109,0.9487,9.976296628301503,30.083932,3.0,-1.0
K6Sn2Se7,mp-29386,14,-3.58443915575,3.1854498841480017,-0.97424464004375,4273.440619052339,1.6825,12.574014,20.070025385925966,3.0,-1.0
CuMo3I7,mp-29440,61,-4.6575356610227265,5.02162694328922,-0.35715165511363656,3279.520050455627,1.5657,11.428423,17.281851,3.0,-1.0
Bi7RhBr8,mp-29516,14,-3.50196095546875,5.9757871885002825,-0.5213384329687498,2450.8832222545257,1.0144,9.491267,18.933118291059877,0.0,1.0
Sr13(MgSi10)2,mp-29546,55,-4.216332159285715,3.3097710464392174,-0.3971865366190473,3510.712724922685,0.036100000000000236,9.83827834,23.35125606,3.0,-1.0
Re2(PCl8)3,mp-29593,135,-3.5741257197413794,2.514496121404173,-1.118217602636355,3476.8216177260106,0.004499999999999949,13.609827,15.983243,0.0,1.0
Re3(SBr)7,mp-29599,159,-4.932524845588237,3.9762490629582565,-0.6323485865808824,2242.429234049726,1.3262,9.975137208231523,26.022579,0.0,1.0
GaP2I9,mp-29817,61,-2.5315771586458333,3.594557135271476,-0.2340120952827384,4707.589704927481,1.7115,11.478636,21.713497,0.0,1.0
Rb4Hg5Te13,mp-29827,62,-2.5006716719318183,5.845303868133963,-0.3959693898863634,3413.085414469792,0.6505000000000001,9.372655,35.491478,3.0,-1.0
Cs4SiSe4,mp-29834,218,-3.6408255752777774,3.866746329531415,-1.0863178620665712,3007.9666676296983,2.2151,14.435251000000001,14.435251000000001,3.0,-1.0
Rb3Bi2I9,mp-29895,7,-2.6797132400000003,4.393114722569822,-0.9341572133928574,2746.458274963953,2.4206,8.454125999999999,25.947473309928323,3.0,-1.0
NbSeCl9,mp-29968,14,-3.5719797351136364,2.3038092070168963,-1.30999107072125,2830.8964457495367,2.0713,12.577254,19.743343,0.0,1.0
Bi2Te4Cl7,mp-29991,19,-3.195549454134615,4.407731033452569,-0.9547625943515384,3545.9096794604657,1.3356,8.983634,23.447421,1.0,1.0
Sr(AlCl4)2,mp-30024,61,-4.004537847613636,2.007388943783932,-2.2580432360451512,2813.8959926897005,5.4902,11.621962,20.610681,3.0,-1.0
Rb4SnS4,mp-30230,218,-3.753848454444445,3.0585704825309885,-1.3289964975000004,2557.5184805013682,2.4082,13.675385999999998,13.675385999999998,3.0,-1.0
K4(TiTe3)3,mp-30280,14,-4.36737976171875,4.284751182384461,-0.8412684987187502,2245.278711001751,0.0,8.261036,29.92113096228391,3.0,-1.0
Ca7Au3,mp-30369,61,-2.958687325125,4.56683108163218,-0.5726029471249998,2534.9212441239256,0.0,6.726502,20.812552,3.0,-1.0
Sc29Fe6,mp-30702,200,-6.740438174285713,3.6778225169442393,-0.0415347078571423,2959.661276613192,0.0,14.357560999999999,14.357560999999999,3.0,-1.0
Sr9Mg38,mp-30783,194,-1.590180821382979,2.1271953916826654,0.027180310106382964,2673.120847080754,0.0,10.518164671021653,27.900246999999997,3.0,-1.0
Sc57Rh13,mp-30863,200,-6.944455616,4.299424758235072,-0.4203593117857135,3012.743307166853,0.0,14.442888,14.442888,3.0,-1.0
Ga(SbCl)4,mp-31251,33,-3.603929815555555,3.700874737707477,-0.8750959967266662,2507.5392401282274,2.0139,10.131574,18.301423,0.0,1.0
Tl3PdBr5,mp-31287,61,-2.9746601391666667,6.029985876541862,-0.7024964225,2465.402123367094,1.3458,8.14596,17.457995999999998,3.0,-1.0
Ba2SnSe5,mp-31307,19,-4.3826841890625,5.132330094499807,-1.2168003261523441,4080.102686427928,1.0762,12.571135,18.447931,3.0,-1.0
SiO2,mp-32895,227,-7.899991569027778,1.2925538592205346,-3.2611099165277766,3705.123529610678,5.787000000000001,17.368909939445018,17.368909939445018,3.0,-1.0
Sr3Al2O6,mp-3393,205,-6.808966680492424,4.0166826767881,-3.3513677502651515,4095.9344285099073,4.2046,15.99991462,15.99991462,3.0,-1.0
Ba5B4O11,mp-3974,19,-7.309950445125001,4.720123283477983,-3.159213375645833,3824.2302225114363,3.7594,9.73823651,23.20322047,3.0,-1.0
Sr3(GaO3)2,mp-4446,205,-6.153310017537879,4.581513006199599,-2.8261620559469702,4334.553765417768,3.5262,16.30477455,16.30477455,3.0,-1.0
SiBr2,mp-504902,14,-3.555341605666668,2.5230788456101,-0.6556192390000002,2473.2044950007253,2.6702,11.061441,16.144963537313117,0.0,1.0
Cs2Te13,mp-505464,57,-3.1010664893333333,5.223576690061924,-0.2574853670574712,2447.282223189757,0.4848000000000003,7.395335,23.451181,3.0,-1.0
Rb4SnSb6,mp-505490,147,-3.288137311969697,3.9659834355604704,-0.31489044060606075,2992.352129414201,1.0629999999999995,14.741554,15.309795772445431,3.0,-1.0
Rb3Ti3Te11,mp-505639,14,-4.321294544705882,4.6998944804962335,-0.7210363977941169,2548.9555812967387,0.0809000000000002,10.817374000000001,18.264105294052648,3.0,-1.0
Al6SnTe10,mp-530331,152,-3.8532224662745103,4.5506385116219334,-0.4463968112745104,3408.041085016975,1.4369999999999998,14.709770644243925,18.18705447,3.0,-1.0
SiO2,mp-530546,175,-7.904686847530866,1.6368751505638437,-3.265805195030865,3291.4579220456185,5.5612,12.881053999999999,17.1772303926142,3.0,-1.0
Sr14MnAs11,mp-530564,45,-4.317584302788462,4.53829958406296,-1.084324823095712,3081.938024113897,0.10969999999999967,16.181463215565937,16.18146360475974,3.0,-1.0
TlW3Br7,mp-530709,48,-5.357099052840909,5.9362933646780505,-0.5666883101136354,2943.2412734319787,2.311,14.129437,14.451012,3.0,-1.0
Ba14AlSb11,mp-530714,142,-3.9540607545192312,5.182237728287287,-1.0298230202884615,4215.460322044558,0.5247999999999999,17.95679985141417,17.95679985141417,3.0,-1.0
KMo3Br7,mp-531064,48,-4.986330221022726,4.033632984934998,-0.8858016922045457,2918.7516251995726,2.3713,14.128482,14.393336999999999,3.0,-1.0
Zr6NCl15,mp-531184,230,-5.78723769340909,2.877169909895806,-2.2396722107400002,5047.2129131964675,1.3415,18.716494261217484,18.716494261217484,3.0,-1.0
Na3B5Se9,mp-531600,142,-4.510018689264705,3.3237292266413,-0.4627175832015926,3331.997421456058,2.8213,15.392296612769124,17.754889200590416,3.0,-1.0
Ga6SnTe10,mp-531948,152,-3.478697595,5.254018212715764,-0.3251002908823527,3438.096609183415,0.8614000000000006,14.79711209124135,18.131491,3.0,-1.0
KW3Br7,mp-531952,48,-5.404081778522726,5.2057177595090245,-0.7274214024318181,2934.5129242231073,2.6738,14.134414000000001,14.419576999999999,3.0,-1.0
SiO2,mp-532105,191,-7.904559575432099,1.6128370471833102,-3.2656779229321,3340.514586474914,5.5581,12.896127,17.294647551823424,3.0,-1.0
Hg7(Sb2Br3)2,mp-532156,14,-1.9410400192647064,6.711108882433841,-0.26672668073529404,4692.475138767193,0.0,13.273047,26.566528552106327,3.0,-1.0
Ba14MnSb11,mp-532211,45,-4.127284675673076,5.2318071419014975,-0.9947342245059682,4211.013213908639,0.016499999999999737,17.922463883472112,17.922464776398865,3.0,-1.0
Ca14MnAs11,mp-532462,45,-4.5305658275,3.6629720690635215,-1.1270886257559678,2611.490988067753,0.0,15.32153477442782,15.32153477442782,3.0,-1.0
Na2Zr12B2I5Cl23,mp-532604,7,-5.47311202,3.4952562125829587,-1.9499499501131816,2482.05635158722,1.2721,13.498072,13.621453,3.0,-1.0
SiI2,mp-541053,14,-3.129676486666667,3.164823626149329,-0.30523006999999985,2958.122066643363,2.2811,11.592207,17.285839016082065,0.0,1.0
Rb3AgO2,mp-553907,19,-3.512246790520833,4.213513888100327,-1.134665264131944,2498.712467028814,1.5831,12.996473,14.750435000000001,3.0,-1.0
NbAg2(PS4)2,mp-554336,62,-4.963573443076923,3.5974045704370456,-0.7807343888827839,2315.761018189601,1.6227000000000005,6.897867999999999,26.82600200000001,3.0,-1.0
Ta2Bi4Br7O2,mp-554564,128,-5.1001151152499995,5.7064185124737214,-1.1517478340833336,4165.055566064808,0.7267999999999999,14.993703,18.52691,1.0,1.0
Cs2Bi4O7,mp-555117,15,-5.308603118846154,6.77366643589516,-1.687787713816313,2380.3277398104783,2.6076,13.000151971023454,16.147344985945708,3.0,-1.0
Ba9Fe4S15,mp-555262,62,-5.506503015982141,4.142198395501916,-1.8191602662276785,3111.333955751232,0.04609999999999959,9.63431949,25.39013093,3.0,-1.0
KBi6BrO9,mp-555393,230,-5.448913226764708,7.5109141551801555,-1.666647311132353,2682.8556790037705,2.3298,15.161414945361367,15.161414945361367,3.0,-1.0
CsTaPS6,mp-555592,14,-5.5443725497916665,3.3664486145212056,-1.2105497648197188,4239.815063593456,0.0,14.989128,18.042275,3.0,-1.0
Cs3KRe6C6(S4N3)2,mp-555611,206,-7.687730370500001,4.425813750285946,-0.710290189369104,2953.049041783538,2.1868,15.65419898857198,15.65419898857198,3.0,-1.0
SiO2,mp-555791,229,-7.875621435069442,1.1062949814317262,-3.236739782569445,4328.928357687431,5.7384,17.78282534519425,17.78282534519425,3.0,-1.0
S,mp-555915,19,-4.115865562222221,1.6308283247739959,0.020584304652777358,2350.739973080468,2.5405,8.261497,22.76662300000001,0.0,1.0
P4S(NF)6,mp-556050,14,-6.317177218897059,2.042839479300257,-1.5310438517694536,2301.954071491691,2.2497,9.625416,20.69857421699983,0.0,1.0
K6CoMo5O19,mp-556109,14,-6.285933531935482,3.3198935648580234,-2.120205450217742,2155.1919078688825,0.02259999999999996,8.267147,25.881382337407288,3.0,-1.0
S,mp-556269,14,-4.099271607638888,1.6208382663220364,0.03717825923611113,2365.228790517954,2.3376,8.499848,19.00802096679969,0.0,1.0
Ti4S8Br6O,mp-556341,14,-5.3509070863157895,2.7156499381005026,-1.4860064699780704,2307.471907327729,1.3943,9.706645,20.084746367166925,0.0,1.0
Rb10Si6O17,mp-556390,61,-6.1817668090909095,3.419165057138179,-2.7110535420075763,2516.0508846687417,3.4663,13.016335,14.000632999999999,3.0,-1.0
Zr(WO4)2,mp-556713,19,-7.9986939025757575,5.067786921101905,-2.5689414189393944,2307.679620147209,3.1688,9.001669999999997,27.563986,3.0,-1.0
TaP2S2Cl5,mp-556728,14,-4.903659969125,2.496095683678809,-1.3137015720942855,2577.411244864688,2.3399,6.839192,27.75506902744956,0.0,1.0
SiO2,mp-557024,223,-7.8599948668750015,1.5923747917106772,-3.2211132143750003,3007.502845446469,5.6788,14.434509,14.434509,3.0,-1.0
RbSnS4,mp-557059,60,-4.1653793709375,3.051831605369772,-1.0183684717708334,2894.1358528078913,1.3264999999999998,10.127411,20.135468,3.0,-1.0
KBi6ClO9,mp-557071,230,-5.473653368382354,7.384230264538138,-1.7139213094123529,2648.9149198495143,2.3531000000000004,15.097207821924787,15.097207821924787,3.0,-1.0
Te2As2Se8S(OF6)2,mp-557236,14,-4.244443793240741,3.6264165470734016,-1.5561825746724074,2433.77546673231,1.3994,7.4844800000000005,36.84331146385439,0.0,1.0
AlPO4,mp-557362,34,-7.477960773472222,1.6495222317228948,-3.1210401790674607,2946.417601464704,5.5478000000000005,8.615347,24.278019,3.0,-1.0
KCoPO4,mp-557981,173,-6.50294478452381,3.0245067296306,-2.397135573319728,2543.135626374801,2.8939,8.63193005,18.444525465609946,3.0,-1.0
TlSb3(AsS4)2,mp-558174,33,-4.307646052678572,4.4223089823222175,-0.6040165923214283,2931.916588850916,1.5340000000000005,8.328946,39.393633,3.0,-1.0
ZrMn2Ag4(MoO4)6,mp-558201,19,-6.8424008566891885,4.571570181912892,-1.9606855401458647,2313.347658873944,2.1062000000000003,5.488457,21.818844,3.0,-1.0
KBi6IO9,mp-558501,230,-5.415422697352941,7.581609471931316,-1.6397987773088236,2740.192264626261,2.2881000000000005,15.268661799315224,15.268661799315224,3.0,-1.0
RbSb2Au3S5,mp-558739,58,-3.9922342115909086,5.8793116895723365,-0.6808587109659091,2440.7415871961066,0.7259000000000002,7.158204,26.644982000000002,3.0,-1.0
SiO2,mp-558947,129,-7.906486729652778,1.661650331256439,-3.2676050771527776,2882.1176314910276,5.6491,7.49645,19.607762,3.0,-1.0
S,mp-558964,60,-4.122331677125,1.5879841171581561,0.014118189750000454,2682.40391551604,2.5396,9.558458,19.746201,0.0,1.0
AlPO4,mp-559145,163,-7.475053545347222,1.4452722605767314,-3.1181329509424613,3362.8136857869517,5.662000000000001,13.865635986465714,20.197266,3.0,-1.0
TiPCl7O,mp-559493,61,-4.459364205875,1.8848254605377768,-1.8262241874724758,2417.554077896839,2.6595,13.034221,14.091866,0.0,1.0
K9Bi5O13,mp-559498,14,-4.829582431851851,4.665219534920952,-1.6948634256759258,2284.821142292098,1.0719999999999998,5.823387,27.336901213958434,3.0,-1.0
K2Se2O5,mp-559568,61,-5.0640124377777775,3.0052943122449087,-1.6816848607708337,2794.6360136233534,3.5339,9.983398,25.743342000000002,3.0,-1.0
P2NCl5O,mp-559917,14,-4.542954730277779,1.7831573623001136,-1.2880698121747618,4011.294142041568,3.7195,13.245559,20.565979000000002,0.0,1.0
Bi24Cl10O31,mp-560085,13,-5.337949504846153,7.849726530354358,-1.6838731550207688,2481.816457964582,2.1162,8.070549,29.99864768297617,2.0,1.0
K6Nb4S25,mp-560348,14,-5.049932877214286,2.3989455604514864,-1.224436862532143,3898.002338085023,1.5193,13.414195999999999,18.655499857716226,3.0,-1.0
P3S3N6F5,mp-560409,61,-6.061338583676473,1.9696897425212831,-1.268608526048194,2482.9289879887265,2.1283000000000003,10.005614999999999,16.392570000000006,0.0,1.0
K4Nb2Se11O,mp-560666,61,-4.716321814583334,3.7051169771502384,-0.9749386150850702,4398.4399270404165,1.2873,14.132398,18.982246,3.0,-1.0
Nb3Te8I7O,mp-560687,14,-4.270908160394736,4.7861953614805905,-0.5675357217763161,3058.4449344355157,0.4605000000000001,9.213007000000001,20.64915783366504,1.0,1.0
K2Y4Sn2S11,mp-560785,130,-5.757879714736843,3.1715250015713576,-1.8468947361600885,2144.479112222627,1.5806,8.699511,28.335582000000002,3.0,-1.0
Sb2IBr2F11,mp-560928,61,-3.957105243984375,3.570453873951253,-2.1644852660525,2750.3399221101354,1.6859000000000002,12.868021,14.774069,0.0,1.0
ReSF4,mp-560960,29,-5.7232148674305545,4.165422110743613,-2.123261936244722,2815.404727896776,0.4973,8.614767500000001,28.673451300000004,1.0,1.0
V2Cd6Se5O21,mp-561273,14,-5.35232708125,4.7244102605042855,-1.6176305244255509,2118.9174799800294,2.3391,5.549387,24.50141835888798,3.0,-1.0
S,mp-561370,29,-4.108087514659092,1.5709463179141958,0.028362352215908836,2982.645709515884,2.3629,9.021433,20.320624,0.0,1.0
Ba8Sb6S17,mp-561455,13,-4.815494724516129,4.231851222898561,-1.6165720852620968,3726.5831409693865,1.3951000000000002,11.618297,22.889454786743737,3.0,-1.0
Cs11O3,mp-562001,14,-2.4083527826785707,2.512526068644122,-0.7950368898922413,3991.750872562146,0.0,9.349774,24.333234088959088,0.0,1.0
HfI4,mp-567273,205,-4.0940441655,3.51101528866786,-0.8833963035000003,2595.9646312434675,3.2852,13.743571,13.743571,0.0,1.0
Ga(SbBr)4,mp-567352,33,-3.3448136694444446,4.258348578292321,-0.4457240447222222,2733.9454060971757,2.0175,10.399435,18.888247,0.0,1.0
Rb4Ti2P6Se25,mp-567491,43,-4.271579251081081,3.4775008789586006,-0.498859725856459,2480.611018652442,1.1898,18.709354465296897,26.57081700914124,3.0,-1.0
Ba14MnBi11,mp-567518,142,-3.909584115865385,6.3989430660827455,-0.8781350581598144,4438.8355239975435,0.0,18.236192100786067,18.236192100786067,3.0,-1.0
AlSb2(TeCl2)2,mp-567743,2,-3.717216388333333,3.6193566224073535,-1.1277070464488892,2450.00959887164,0.7508999999999997,9.85488,18.56542872468636,1.0,1.0
Sr14MnSb11,mp-567788,142,-4.000901297596154,4.785461952203294,-0.9919221569418654,3637.881968255593,0.0,17.088009311165127,17.088009311165127,3.0,-1.0
Ca14AlSb11,mp-567799,142,-3.9646729665384615,4.062148074097154,-0.9937888207692308,3151.6120345580803,0.6067,16.328751245168505,16.328751245168505,3.0,-1.0
RbZr6CCl15,mp-567966,51,-5.683626516413042,2.9126921814655296,-2.192266377126087,2683.1799633727937,1.1281,9.96993,18.930297,3.0,-1.0
Na4Ge2Te5,mp-568060,14,-3.3151619675000004,4.072775237979723,-0.5677829468939396,2854.7977145797527,1.2979000000000005,13.085385,15.255561776496071,3.0,-1.0
Rb5Mo27Se31,mp-568072,176,-7.0872727894444445,5.856950752232088,-0.6411094881770835,3099.101147033947,0.0,9.730748029596748,37.793113,3.0,-1.0
NbTe4,mp-568220,130,-4.86957406575,6.526140548132294,-0.3346723137500002,3684.188432279101,0.0,13.251043,20.98175,3.0,-1.0
KTaTe3,mp-568318,14,-5.0516983437,5.607998538235741,-0.5720824702999999,3570.0780812097096,0.4180999999999999,7.9863649999999975,31.328616139579005,3.0,-1.0
Cs2Hg27,mp-568335,204,-0.4372698257471264,10.238486025653664,-0.09278104646650807,2764.4964441283423,0.0,15.313670871600713,15.313670871600713,3.0,-1.0
Rb2ZnCl4,mp-568350,33,-3.181647706309524,2.704299280249709,-2.0050454688866672,2786.4244708950105,4.5227,7.612996000000001,28.191813,3.0,-1.0
Ba(FeBr4)2,mp-568396,61,-3.896472283068182,3.4121295217165937,-0.9915278367045456,3458.185642674774,0.8935000000000001,11.512828,22.271641,3.0,-1.0
In5Br7,mp-568546,15,-2.8345232591666663,4.317624316157118,-0.7331145566666665,3487.260085588512,2.0779,13.464009668202598,19.86303559816178,0.0,1.0
K9InSe7,mp-568644,14,-3.2392022142647057,2.8908144737733967,-1.0499872379944852,2342.3035052391187,1.8682000000000003,8.296998,25.320088437979607,3.0,-1.0
Ca36Sn23,mp-568774,127,-3.4403246337288134,3.7810542738072415,-0.6535153397457626,3665.463745028625,0.06709999999999994,12.59466708,23.107637399999998,3.0,-1.0
Ca14GaAs11,mp-568790,142,-4.3159546875,3.679583223171533,-1.1483855999038457,2626.3905293804683,0.5969000000000002,15.381412415474985,15.381412415474985,3.0,-1.0
Ca14MnSb11,mp-568798,142,-4.1522598164423075,4.130508272175264,-0.9730629537367376,3144.408722806651,0.0,16.27774214740281,16.27774214740281,3.0,-1.0
Hg9Bi2(AsBr3)4,mp-568804,78,-2.233898601203704,6.276933992880889,-0.4267584528703702,3684.393408277625,1.1979000000000002,11.231117,29.209228999999997,3.0,-1.0
Ba19Na29Li13,mp-569025,216,-1.6476007100819674,2.1903953963264846,-0.01807026221311456,5103.756555712931,0.014700000000000046,19.325688600000003,19.32568895429685,3.0,-1.0
Nb10Se40I3,mp-569026,124,-5.193280656792453,4.788311164093919,-0.5626854237500002,3099.039540009001,0.0,9.787103,32.353316,1.0,1.0
P4Se3,mp-569094,62,-4.644890738303571,2.5335547575040094,-0.05333675563456605,3783.3391818138643,2.1677,10.448516999999999,28.446544,0.0,1.0
Sr14MnBi11,mp-569111,142,-3.755952678365385,6.152102456091713,-0.8480749311726344,3865.6041094930847,0.0,17.42021626526195,17.42021626526195,3.0,-1.0
Ca10Mg2Sb9,mp-569202,136,-3.803750127261905,4.143336079449503,-0.9267229815476188,2477.148590102528,0.0,11.939386,17.377531,3.0,-1.0
Tl3Bi2I9,mp-569203,14,-2.6006081525,5.671981463462441,-0.5590980742857141,2544.978747928998,2.3521,8.08885,25.265006671781844,3.0,-1.0
Mo6PbI14,mp-569225,201,-4.7271119889285735,5.191327840007774,-0.43555570988095227,3274.8107275360426,1.8469,14.850078,14.850078,3.0,-1.0
Ga(BiCl)4,mp-569237,173,-3.5365700235185185,5.335332121115246,-0.9139437291340744,3912.054729603826,1.4227,13.493756,18.296613543398486,0.0,1.0
Ta4Se9I8,mp-569258,33,-4.874360872142857,5.097494951323603,-0.5369125512425593,3191.974299105905,0.8829,13.666023000000001,15.524331,0.0,1.0
LiCa10MgSb9,mp-569282,136,-3.8544310276190483,4.125624286067263,-0.9627066049206352,2459.827658178093,0.9215,11.964099000000001,17.184808,3.0,-1.0