pretty_formula,task_id,spacegroup.number,final_energy_per_atom,density,formation_energy_per_atom,volume,band_gap,min_abc,max_abc,Dimension,Dim
AlSBr3N,mp-558847,14,-4.137931925416667,2.684645042052132,-0.7909623413341667,773.821327191582,1.8892,7.552753,10.842196000000001,0.0,1.0
AsC3N3F8,mp-558853,15,-6.034253522333334,2.3538356180866664,-1.5301683131106665,860.5523561765688,4.015,8.407768429402001,13.887804347166258,0.0,1.0
VCdBiO5,mp-558859,33,-6.16760226578125,6.242609675893895,-1.9872075803125,962.5608634052139,2.6610000000000005,5.586174,14.499338,3.0,-1.0
RbV3Cd3O11,mp-558909,14,-6.1436933131944444,4.5876316713221215,-2.1071798843750003,1088.0787735697206,2.978,8.568776,12.874395568994766,3.0,-1.0
Na2Ge4O9,mp-558933,165,-6.067051965222223,4.267061216774209,-2.111558293750001,1122.0073995335144,2.8749,9.837912,11.475749976202252,3.0,-1.0
Zn4SiTePbO10,mp-558938,62,-5.517129156617648,5.903682621298901,-2.000841442058823,882.6481500908423,2.2881000000000005,6.622298,15.842037,3.0,-1.0
SbSe6IF6,mp-559000,13,-3.901969476785714,3.861806389205437,-1.3911277965144642,719.300482429558,1.5426,7.258564999999999,12.019051245729544,1.0,1.0
TlMo2Cl7O2,mp-559041,2,-4.318687416666667,3.4148883214510115,-1.4637518487766676,657.8508476751999,2.5434,7.267019,10.281454244847904,0.0,1.0
NiAs2S6(OF)12,mp-559097,14,-5.1538880256060615,2.4423703927082654,-2.070042573425151,1116.2409434000017,3.0298,8.092838,15.431773769409725,0.0,1.0
KCr2AgO7,mp-559172,62,-6.080228054318183,3.362690972312319,-1.6308909478106066,716.9259757863855,1.6337,5.929348,15.486587,3.0,-1.0
CdSeO3,mp-559203,14,-4.85669971325,4.776820168898522,-1.42554018446875,665.6845246614226,3.4068,5.840402,13.150298999999999,3.0,-1.0
H3CS,mp-559204,14,-4.8402156724999985,1.1387407724565155,-0.3564195622969997,549.4531845690603,3.6318,5.3685410000000005,15.292967,0.0,1.0
RbGeBiS4,mp-559227,14,-4.35471117,4.049425746559159,-1.0139174978571428,812.5053665882532,1.9845,6.71937,18.29053522551511,3.0,-1.0
CsLi2BS3,mp-559238,62,-4.478285988214286,2.5369419951669334,-1.3623417772341957,664.4754866766076,3.0936,8.084481,10.113994,3.0,-1.0
K3Sb7(SO3)3,mp-559272,173,-5.295681210227274,3.803719350424797,-1.6200373765738638,1056.2964562430839,1.8305,5.721346,14.600861645664954,3.0,-1.0
K3ZnNCl4O3,mp-559309,62,-4.31981021,2.2347185703161867,-1.7951591306808332,1148.8388685339887,3.3079,9.479030999999999,12.287486999999999,3.0,-1.0
CsInS2,mp-559459,15,-3.9381612140625,3.8788414632203376,-1.2898947551077589,1068.0402276695945,2.1723,8.085280284508695,16.584631070035652,3.0,-1.0
SeO2,mp-559545,26,-5.14720492,3.7572711364770197,-1.15145744828125,392.3090253333554,3.4687,4.6848529999999995,16.046872,1.0,1.0
AsSe(IF2)3,mp-559575,14,-3.550283254772728,3.7411573923246846,-1.6184315701803411,1151.5168492228552,1.3837,8.696952,12.798858887184007,0.0,1.0
AgSb(S8F3)2,mp-559602,15,-4.216658084583334,2.326262989380092,-1.2561290880752776,1223.0045445552037,2.7457000000000003,10.112073141802773,16.37794266934724,0.0,1.0
NaInAs2O7,mp-559710,15,-5.825164581363636,4.2743324974815735,-1.906598123371212,621.0364529394243,2.3178,6.8619482626420325,14.206111944806327,3.0,-1.0
Rb2Na2SiO4,mp-559711,61,-5.343467492916667,3.3212924300279267,-2.3436509958796297,1235.9132053545848,3.0831,9.928733,11.269671,3.0,-1.0
KGa(Te3O7)2,mp-559730,205,-5.4030645625,5.374215219401688,-1.655900171954546,1357.561956300262,2.9729,11.072692,11.072692,3.0,-1.0
KV(IO4)2,mp-559744,14,-5.2747737475,3.9109794163768257,-1.4809692477499994,801.3494445177353,2.7049,5.308492,16.48693992484879,3.0,-1.0
KHg2S(ClO)3,mp-559765,36,-3.709081515,4.270651906201277,-1.5401516269654998,487.3544770982825,2.724,7.034738000000001,11.614185576211964,2.0,1.0
Rb7NaZn2O6,mp-559795,2,-3.719104845625,3.94313399825352,-1.4583629233333335,714.2886488601367,1.5704,7.209494999999999,11.442727031272616,3.0,-1.0
Li5SbS3I2,mp-559814,58,-3.7134809375,3.1033359303962036,-1.2461527189583337,1084.0095687380117,2.5081999999999995,7.61569,13.580592999999999,3.0,-1.0
FeTe2ClO5,mp-559874,14,-5.393673921944443,4.626148559297213,-1.559698026334444,1224.710534271568,2.1053,6.699461,14.417364654888392,3.0,-1.0
K2MoCl5O,mp-559914,62,-4.1043128569444445,2.4647874947501225,-1.8764949373388893,990.0792095178267,2.7581,7.129815,13.833029999999999,3.0,-1.0
AlS2NCl6,mp-559940,11,-3.796276948,1.7907785709468995,-1.1795635868189998,1178.8827486302291,1.6836,6.4115,13.796914000000001,0.0,1.0
AlS2NCl4,mp-559963,62,-4.1778284778125,1.7219487414084091,-1.2203995205212497,952.4959670629527,2.1062000000000003,7.5880300000000025,11.478057000000002,0.0,1.0
TlRe3(S2Cl)2,mp-560005,2,-6.7021871487499975,6.360010470049295,-1.0926975531519991,1004.8545544987812,1.8316000000000003,6.436357,17.18914167403483,1.0,1.0
AuS3(O3F)3,mp-560021,14,-5.2960300725,3.0454928546877267,-1.7856868999496869,1077.7338291456067,1.5561,9.675346000000001,11.14127346643538,0.0,1.0
Ba9Nb2CN10O,mp-560022,2,-6.850572947173912,5.394276777891879,-1.1779418343499997,978.8076074309744,1.7783999999999995,8.105502,12.786969096753342,3.0,-1.0
AsS3(NF3)2,mp-560042,14,-4.867678659166667,2.4940375344537653,-1.5754842271895833,833.9067579360162,1.4827,8.503378999999999,11.417279819696152,0.0,1.0
RbSiBiS4,mp-560051,14,-4.632197986071428,3.812763632329207,-1.1767920046428568,785.3206985924452,2.0844,6.584706,18.197861488806566,3.0,-1.0
Na3NO4,mp-560068,61,-5.05385569109375,2.492486874234019,-1.4439693520162495,783.3314433079054,3.7505,8.718547000000001,9.825449,3.0,-1.0
TlPb8Br9O4,mp-560133,85,-4.0792506575,6.581582936490973,-1.1802583722727276,1334.730562710401,2.9557,8.405302,12.601439,0.0,1.0
K2RuBr5NO,mp-560144,62,-4.24766719725,3.4350781758946454,-1.0598714067129995,1177.1773567250527,1.6315000000000002,7.430714,14.317988,3.0,-1.0
TaP4(SCl)5,mp-560192,2,-4.869420363666666,2.3551913506611326,-1.0597453440807143,905.9008936278276,2.177,6.931042999999999,13.659534648981163,0.0,1.0
SnSe2(Cl4O)2,mp-560193,15,-3.416934107307692,2.5045777351226324,-1.1458930640974998,785.3291178882757,2.775,6.843764064202683,16.848124102354213,0.0,1.0
K2Se(SO3)2,mp-560223,14,-5.450207126363637,2.4327227821352952,-1.9832360429176128,866.2899374101338,2.9779,6.049702,15.756268436866643,3.0,-1.0
NbPCl8O,mp-560255,62,-4.389355996363636,2.052960086827817,-1.6810774341728567,1370.205257952402,2.3872,8.622336,17.124848999999998,0.0,1.0
K2Mo3(AsO5)4,mp-560268,15,-6.306824236379311,3.5367495595220464,-1.9028756164137928,925.5834406987041,2.6655,10.042041928137325,12.330416604931278,3.0,-1.0
Ag2Mo2O7,mp-560276,14,-6.124701023409092,5.482320077047615,-1.5779686281439391,629.5410304074287,1.9882,6.197475,13.398143,3.0,-1.0
K2Ba(NO2)4,mp-560282,12,-6.154213331166668,2.726458454631266,-1.4932145828679997,973.3668621447822,2.1777,9.153852672486325,13.423889608053436,3.0,-1.0
K2RuN3Cl3O5,mp-560322,2,-5.637107137857143,2.391636924035309,-1.3269296817264282,566.0613630451796,2.084,7.194597999999999,10.467083535491776,3.0,-1.0
Rb3Hg2S3ClO12,mp-560324,4,-5.115020220714285,4.194856276063302,-1.9640788326254763,776.8376363647052,2.3627,8.081489999999999,10.243503480021372,3.0,-1.0
Ge(PbS2)2,mp-560370,14,-4.5517737514285725,5.323567802722376,-0.8460192567857143,767.7029582728227,2.1082,8.183824000000001,10.930463312749557,3.0,-1.0
AsPbClO2,mp-560394,19,-5.26312934675,5.514563430440606,-1.6397398689020002,842.1051561614679,3.542,7.1496770000000005,11.673175,3.0,-1.0
K3V(SO)2,mp-560426,14,-5.1170049325,2.2056828491210223,-1.8457032347187503,796.1049207495302,2.4361,7.398341,11.829212483045733,3.0,-1.0
TiSCl6O,mp-560517,14,-4.245525904166667,1.9378644048468383,-1.674719991640926,1057.9158898853048,2.659,7.915578,12.971237508560586,0.0,1.0
Na3AlS3,mp-560538,14,-4.0652757783928575,2.010525631177555,-1.4783469097321429,1269.581166440218,2.907,7.657872,13.801734286645644,3.0,-1.0
KNi3As3O11,mp-560548,14,-5.636694510833332,4.483030970403099,-1.601223157597222,912.5852216102077,2.563,9.843191000000001,10.415565772281264,3.0,-1.0
NbSe2SN2ClF6,mp-560589,14,-5.390367818076923,2.800527144033072,-1.832812893690192,1091.8318297885871,2.1919,8.543657000000001,13.716427663236265,0.0,1.0
Na2TeO4,mp-560613,14,-5.077085811071427,4.069171614397129,-1.8263333484523805,775.599866103695,1.8126,5.250669,14.072184186485904,3.0,-1.0
Cs2MoS4,mp-560635,62,-5.159418318928573,3.242245482966573,-1.3696458558374391,1003.8502674700318,1.7727,7.395711,13.144506,3.0,-1.0
SbS(BrF2)3,mp-560639,19,-3.707102683636364,3.2438613486317767,-1.7947325445695457,1039.2171753058992,2.6483,8.493333999999999,12.779312,0.0,1.0
Na5Bi2As5O18,mp-560658,2,-5.727179357000001,4.421384181995111,-1.9248160181388887,897.992909514218,3.1791,7.1848550000000015,12.312780322590385,3.0,-1.0
Cs2Cr(NO3)5,mp-560716,154,-6.251711121884058,2.7072233989059944,-1.3439635052106695,1155.2856033862104,2.7712,10.282523,11.390152013019712,3.0,-1.0
SbCl3F2,mp-560748,79,-3.549579655,2.6768368540282537,-1.7609705820266666,660.3251776094952,1.7137,10.137864885318407,10.137864885318407,0.0,1.0
SbI(ClF3)2,mp-560789,64,-3.6976956645,3.2405267352289453,-2.029294003366,888.676259250883,1.8658,8.218033046974258,13.247023,1.0,1.0
Na6P4Pb3S16,mp-560831,160,-4.376801032068966,3.3321017560061628,-1.0579446242857142,695.9268485240042,2.4856000000000003,11.534246950087812,11.534247086440669,3.0,-1.0
Nb2TlPS10,mp-560847,7,-5.547758145357144,3.4724047429654594,-1.0686547460586746,709.4914826992627,1.4255,7.258423,13.18584424902558,1.0,1.0
K2Ge4O9,mp-560875,165,-6.07573679,4.075863614125988,-2.1474768878166675,1253.39336099735,3.0057,9.959967,12.054506497036286,3.0,-1.0
TaSCl7O,mp-560884,62,-4.43862120875,2.5147490099348992,-1.6032822284694999,1260.374654071484,2.8496,7.694843,17.020024,0.0,1.0
SnP2Cl8O3,mp-560891,2,-4.359678052142857,2.223131992710024,-1.6736817808552042,765.281141667257,3.0751,8.980355,11.0415136010077,0.0,1.0
MoSeS2Cl5,mp-560907,15,-4.1213404308333335,2.502726026666845,-1.0594749724881949,1104.8338545484219,2.0114,10.15007988234206,14.224560855391953,0.0,1.0
K2NaTlO3,mp-560950,14,-4.110264781428572,4.247523147988233,-1.448250567583333,552.8994090704725,1.6095,6.521367,12.117418323863955,3.0,-1.0
K2RuNCl5O,mp-560966,19,-4.5296186225,2.51891392794184,-1.5333606135929998,1019.2661915814869,1.7989,7.059107000000001,13.641379,3.0,-1.0
K2Cd(NO2)4,mp-560982,62,-5.808371473666668,2.4840524432917883,-1.2137781300346668,1001.7293926055138,2.4568,6.694419,12.442013000000001,3.0,-1.0
Ca3Fe2(SeO3)6,mp-560990,167,-5.785504528103447,3.8397705991189706,-1.8238406417780169,859.4436180182392,2.0235,14.183557622248273,14.183557643967367,3.0,-1.0
Y(IO3)3,mp-560995,14,-5.280883964230768,4.937379125584808,-1.4924610275320518,825.482313932322,3.4466,6.1523449999999995,16.762781536864487,2.0,1.0
Rb2Sb4S7,mp-561051,2,-4.200749118846153,3.4193797890587323,-0.9093643362980772,857.0621429956102,2.0253,7.608472999999999,11.920287399008632,3.0,-1.0
Rb2Cr2O7,mp-561093,14,-6.215417785909091,2.977479656357178,-1.946252207159092,863.1484715171298,2.7864,7.822825,15.61665184568757,3.0,-1.0
Y(IO3)3,mp-561108,14,-5.268648735384615,4.89964276060446,-1.480225798685897,831.840063549057,3.5096,7.217402000000001,13.56807003118756,3.0,-1.0
Na3GaS3,mp-561130,14,-3.8047509576785714,2.4280331496470624,-1.320319278660715,1285.1210074245205,2.6127,7.702709,13.819472903448125,3.0,-1.0
NbP4(S2Cl)5,mp-561160,2,-4.60067025575,1.9082919421709488,-0.9629901538417862,1243.8500881417951,1.1953,10.302194,12.326450921351773,0.0,1.0
TlCr3O8,mp-561221,12,-6.73000034875,4.083329456539675,-1.7927404204166668,397.20143028461473,1.9409,5.2823491074850395,15.985338302137524,2.0,1.0
K2HgBr2(NO6)2,mp-561222,58,-4.803185692631581,3.5357616869954644,-0.9794350958294744,618.6120301695637,1.9283,5.743225,14.494962,3.0,-1.0
Rb2Y(NO3)5,mp-561251,152,-6.422851299275362,2.5850958357114213,-1.5587259850282609,1098.1620019201764,3.3341,9.617196,11.482690654904408,3.0,-1.0
PbS,mp-561320,5,-4.399087295,1.9655454653586162,-0.8062688265625004,404.27340580245436,2.0532,4.25427879109891,22.43860283892105,0.0,1.0
SbSe(BrF2)3,mp-561328,19,-3.7049098379545455,3.454843247439196,-1.7904559160894318,1065.9124255931208,2.5985,8.524942999999999,12.857966000000001,0.0,1.0
Fe3(TeO3)4,mp-561343,14,-5.897913473684207,5.431198597827585,-1.6488504218421052,1063.889725998378,1.8411,7.468346,16.134400028533598,3.0,-1.0
AlBiSCl4,mp-561350,82,-3.895810288928572,3.256818015369465,-1.5923811583807148,835.8509015210961,2.8809,10.287696878585557,10.287696878585557,3.0,-1.0
GaRe(Cl3O)2,mp-561379,14,-4.679184949,2.8175049563914443,-1.5304790004560005,1180.2549884888665,1.9694,8.663964,12.456848444857993,0.0,1.0
RbGaS2,mp-561407,15,-4.1152437784375,3.321589021526969,-1.3765914512500004,877.1482664656517,2.4681,7.544035812281447,15.641648806575349,3.0,-1.0
Rb2Sn2Hg3S8,mp-561434,14,-3.457894591333333,4.408527770238263,-0.8795497989999996,954.2026780624414,1.6563,6.741296000000001,13.818508150479374,3.0,-1.0
YAg3(PS4)2,mp-561467,15,-4.751101875000002,3.809086037520697,-0.924342604914967,637.3274169680782,2.0268,9.490739507080626,9.797265219623537,3.0,-1.0
S,mp-561513,2,-4.117498591071429,1.5839867992460366,0.018951275803571224,941.2106120356874,2.4271,6.059369,15.544435308717615,0.0,1.0
K2CrSO7,mp-561541,14,-6.022750978636362,2.438210858867952,-2.1087970229886355,747.1193875549009,2.4712,7.523053999999999,15.023351531704268,3.0,-1.0
K2MoAs2O9,mp-561554,14,-6.070436492142857,3.297423622367451,-1.9943888526607143,942.6629543106964,2.7768,7.605484,14.204486,3.0,-1.0
CsSbS2,mp-561639,14,-4.046161094375,3.786407951283288,-1.0535652579202588,559.2343022150442,1.7504,7.1881070000000005,9.955110000000001,3.0,-1.0
Cs2Sn(AuS2)2,mp-561641,70,-3.918821830555556,5.0342438889051415,-1.0032552587068966,598.15699114694,2.051,8.069819003369592,14.84152907875735,3.0,-1.0
ZnCoTeBr2O3,mp-561705,56,-4.39568115234375,4.40842356096472,-1.1896546746875,1385.4025778540795,2.6265,7.806239,16.439753,2.0,1.0
Ag2PS3,mp-561822,19,-4.081062064375,4.447849608136393,-0.4981674862549603,1024.148688117857,1.7538,6.337975,14.382947,3.0,-1.0
CsNO3,mp-561851,144,-5.8203637895555564,3.4204571212587886,-1.5033895963677626,851.6131560977823,3.2977000000000003,7.919952,11.142806809351267,3.0,-1.0
Sr2CoSe2(ClO3)2,mp-561998,14,-5.455554439615384,4.192451436729198,-2.1027238224646787,885.6241152112062,2.1781,6.511515,12.552516246165464,3.0,-1.0
Rb3CoNCl4O3,mp-562140,62,-4.550258898541666,2.7268452987660576,-1.7268595224308332,1264.5743568944386,2.7379,9.615658999999999,12.795628,3.0,-1.0
CoAg(NO3)3,mp-562172,14,-5.8991780955357145,3.0918278056078927,-0.8895152683969039,757.9528303744826,2.4274,7.422844,14.899117503662088,3.0,-1.0
Cs2PbO2,mp-562263,2,-4.291495696,5.4377056902843215,-1.4925391456724135,616.8692385616384,2.0171,8.030255,11.1647844181663,3.0,-1.0
Cs3ClO,mp-562420,62,-3.2526114885000004,4.0954233568382765,-1.6154667761606207,730.1055253830065,1.6183999999999998,4.517952999999999,16.665954,3.0,-1.0
Na10Co4O9,mp-562435,2,-4.669237023913044,3.0065338973323,-1.5259856080253624,673.4041816468388,1.3618,8.43118,11.482750799495475,3.0,-1.0
Cs2Na3TlO4,mp-562541,14,-3.94783157825,4.97525051961851,-1.4399239533362065,805.2439453110411,1.4562000000000002,6.505986,12.795874236855918,3.0,-1.0
CsPPbS4,mp-562569,62,-4.488149779285714,4.014615412353292,-1.0719648120003522,826.153628180527,2.3408,6.509712,18.41196,3.0,-1.0
K3SbTe3,mp-5626,198,-3.196005053214286,3.480635052493428,-0.7831335002142856,1186.696496051088,1.7117,10.58717,10.58717,3.0,-1.0
CsGaS3,mp-562726,14,-4.1001086255,3.2228639603465137,-1.2316151304612064,615.8597098747723,2.4892000000000003,6.548182,12.737441,3.0,-1.0
Cs5FeO4,mp-562735,14,-4.22510041575,4.704680922487867,-1.505432754215518,1107.3879957619267,1.2997999999999998,7.418361,13.084437,3.0,-1.0
Ba7B4S13,mp-562764,15,-5.400252064375,3.6701641647349104,-1.8461174325954848,1286.1842639544445,2.5401,10.286886889949018,13.189218896934344,3.0,-1.0
CoSeO3,mp-562826,15,-5.665429010625,4.3021753987274485,-1.371983874843751,1147.9956810076205,2.6311,9.453972891982923,15.211717288270938,3.0,-1.0
Co5Se4(BrO6)2,mp-562833,2,-5.3818796071739134,4.412570688278876,-1.2785285814945653,724.2707740347321,2.5565999999999995,7.970990823213513,10.218823649489797,3.0,-1.0
K2Te(WO4)3,mp-566368,62,-6.706247372222222,5.520542245991528,-2.1432771578333325,1142.1815283708452,2.8043,7.407624,12.857704,3.0,-1.0
BiAuCl6,mp-567414,2,-2.928227181875,4.165574417806583,-1.09234946807,986.4832526048782,1.6253,7.692309,14.344669481206395,3.0,-1.0
BaSr2(PN2)6,mp-567486,205,-7.4281213896428575,4.222950642811462,-1.0849159250391376,1048.302696018559,4.1542,10.158484,10.158484,3.0,-1.0
CsMn4Cl9,mp-567499,88,-5.0997760389285745,3.0326201014696754,-1.612141250063695,735.6289685724582,1.9349,9.87932961076054,9.87932961076054,3.0,-1.0
BaCo(SeO3)2,mp-567548,62,-5.80922083025,4.773562549430334,-1.8473103909687496,626.3965875596836,2.9833,5.555597,15.344207999999998,3.0,-1.0
SrCa2WN4,mp-567568,61,-7.5527798671875,4.9626064181617435,-1.2441928379608331,1091.2117344481267,2.6134,9.356783,11.407106,3.0,-1.0
Cs2Na(C2N3)3,mp-567575,176,-7.4971289769444445,2.398878591607445,-0.2727739297564113,674.1135422518455,4.3921,7.240032315049429,14.849828,3.0,-1.0
CsSbCl6,mp-567583,15,-3.094075670625,2.838169766644124,-1.5256369865613797,546.907722070473,2.1552,7.2369742542270385,12.933783653068115,3.0,-1.0
Cs2HgI4,mp-567594,4,-2.21826202,4.341088027268812,-1.0481855101231523,745.1570813318435,2.066,8.121005,11.394094265376609,3.0,-1.0
GeBr4,mp-567604,14,-2.8679537785000004,2.9352537907664003,-0.6338069755,887.6321552259086,3.0755,7.223591000000001,11.397076395510954,0.0,1.0
CsPbBr3,mp-567629,62,-3.218983307,4.546517972838242,-1.3152174945862067,847.0742103107675,2.0087,8.370366,12.011295,3.0,-1.0
CsPbBr3,mp-567681,62,-3.2202052475,4.781469830084434,-1.3164394350862072,805.4506790514786,2.8917,4.6641900000000005,17.198155,3.0,-1.0
CsReCl4,mp-567702,40,-4.587965078888889,4.0299219111505415,-1.5287428348840617,1139.550208672841,1.1342,10.193018040651356,10.968213,3.0,-1.0
Rb2AgBr3,mp-567714,62,-2.928975485833333,3.858200908565202,-1.3115748577777782,892.6603491673005,2.6710000000000003,4.724453,19.169446,3.0,-1.0
Ca7NbSi2N9,mp-567722,11,-6.967137826578948,3.3851717951437625,-1.3585387777063154,545.1625590380804,1.9839,6.0658199999999995,9.965075,3.0,-1.0
InI3,mp-567789,14,-2.329517719375,3.895564780597249,-0.4985873256250002,844.9088246518406,2.3375000000000004,6.650672999999999,12.91039665273488,0.0,1.0
KC2N3,mp-567823,14,-7.6360639898611105,1.8062781202246745,-0.39916783821777657,1159.8794896510915,3.7344,3.8742089999999996,24.845237376291863,3.0,-1.0
RbGeI3,mp-567855,19,-2.8379944425000003,4.346850812816676,-0.8028744880000002,823.3396614206894,2.1998,4.5991290000000005,17.19098,3.0,-1.0
AlTlBr4,mp-567878,13,-3.2197563016666666,3.9868652761111902,-1.1106004733333332,917.9394276756219,4.1035,7.633555,13.379012107439694,0.0,1.0
GaSe2NCl6,mp-567956,14,-3.39346383025,2.4889022135304035,-0.8439141796627496,1212.5752668779526,1.6369999999999998,10.196152,11.814378,0.0,1.0
LiGaI4,mp-567967,14,-2.591382906666667,4.026066430868868,-0.7525381018055558,963.9412605887964,2.4872,7.7467320000000015,15.205204371033526,3.0,-1.0
ICl,mp-567998,14,-1.843811709375,2.9964977947509865,-0.4548799135049999,719.7760590022173,1.8619,5.3907120000000015,12.524187708013999,0.0,1.0
InBr2,mp-568108,52,-2.807408067083333,3.9196710646888167,-0.7988957970833331,930.7458593907204,2.4203,8.06913,10.7792,0.0,1.0
Cs2CdI4,mp-568134,62,-2.426623897857143,3.9336698683931126,-1.1680889029802957,1495.7753110575934,2.86,8.747632000000001,15.404841000000001,3.0,-1.0
NbCl5,mp-568483,14,-4.454227640833333,2.3039388372346203,-1.725800986883333,778.8924322413303,2.2959,8.446810000000001,11.968129027696602,0.0,1.0
BPBr2NCl3,mp-568514,64,-4.2942125046875,2.3632392768316093,-0.9091430259247616,904.901351656988,2.9132,9.305259157415714,10.491923,0.0,1.0
In4Br7,mp-568692,166,-2.803592486818182,4.027320946540157,-0.7612996959090911,839.9753164404992,2.2648,16.50297491627582,16.502975808939787,2.0,1.0