pretty_formula,task_id,spacegroup.number,final_energy_per_atom,density,formation_energy_per_atom,volume,band_gap,min_abc,max_abc,Dimension,Dim
S5(IO9)2,mp-1197503,15,-5.458489720399999,2.9954910021121903,-1.5850916003249995,778.4385950161467,2.7759,9.292789552415194,15.14327603803936,2.0,1.0
SrAu2(SO4)4,mp-1197529,15,-5.788663755217391,3.737172378618824,-1.8730180464855068,769.4055575680133,1.6782,9.407289400306816,10.650406452672355,3.0,-1.0
K3AsSe4,mp-1197539,62,-3.5618390334375,3.1347576915690363,-0.8150938888593746,1076.5076593435747,1.113,9.594660000000001,11.199788,3.0,-1.0
B10H13Br,mp-1197561,14,-4.799044218229167,1.2865569287066942,-0.19290168296777746,1038.3155018618622,3.3403,7.812423,12.763498258642453,0.0,1.0
Ba2LiAl(CN2)4,mp-1197768,19,-7.7639128059375,3.0918706300754817,-0.8877040148358324,1006.833489646394,4.1281,6.971147,12.101339999999999,3.0,-1.0
K3Ta2Cu3S8,mp-1197797,15,-5.504564481875,3.7187197499103513,-1.3090462915000003,827.2944683501055,2.311,12.21341096356726,14.466855120617785,3.0,-1.0
CuP4S3Br,mp-1197804,64,-4.642401249444443,2.5990097024140093,-0.44148499874008,929.0807208867852,1.7553999999999998,10.536982,11.853576541039462,1.0,1.0
CsSb2PO8,mp-1197959,12,-6.279145080833334,4.381423059651512,-2.2348105422085385,811.6480223127072,1.9821,9.950074152151833,13.937064680847435,3.0,-1.0
LiZn2(BH4)5,mp-1198025,64,-3.88005489125,1.1313849996838192,-0.2150512423773812,1244.4538881281144,5.7192,9.920651544697305,15.951476999999999,3.0,-1.0
As2H2CCl4,mp-1198214,9,-4.055373576111111,2.2397056025416253,-0.7176074939199998,1359.8122996034951,3.4624,11.609862659359324,12.454656530223744,0.0,1.0
Cs4(BSe)9,mp-1198415,2,-4.927743892727271,3.4785855802334265,-0.6023194052417218,1278.906614082371,2.33,11.031333,11.492531282087073,3.0,-1.0
Mo(NO4)2,mp-1198436,14,-6.46278023659091,2.53491054769132,-1.2641519497509095,660.1739749060722,2.8204,5.40336,15.35938881432126,1.0,1.0
OsSeS3Cl4,mp-1198672,4,-4.144265849166667,3.3067599809761568,-0.7934192452509726,1018.7862896704056,1.4304,9.315965,11.878907793910393,0.0,1.0
Ca(AlH4)2,mp-1198688,61,-3.4879428020454544,1.1598530325139549,-0.2684296355872727,1169.4493545449573,4.7192,9.090475,13.56284,3.0,-1.0
P,mp-1198724,2,-5.41328586142857,1.939294650444865,0.0,1113.9060053656235,1.9259000000000004,7.8574800000000025,13.048705692163649,1.0,1.0
InSeClO3,mp-1198762,61,-4.924969896041667,4.252304212288867,-1.551896130933958,866.071464354568,3.3801,7.15827,16.664532,2.0,1.0
CsCuPS3,mp-1198842,14,-4.445580543125,3.252991700470434,-0.9744364591045772,1321.5748637653985,2.1498,9.716953,13.220733,3.0,-1.0
Rb4V2S4O19,mp-1198857,2,-6.191236062241379,2.916671940357958,-2.284837724181036,997.4634800185727,2.0333,8.029954,12.290719084710787,3.0,-1.0
Li2Ca(SiN2)2,mp-1199122,205,-6.666822088148147,2.7500331480958247,-1.2797151543911107,1203.963021222588,3.4738999999999995,10.638271000000001,10.638271000000001,3.0,-1.0
In2Se2O7,mp-1199125,56,-5.436206444545454,5.182358901174625,-1.598492926676137,1280.5369840399605,2.8578,6.999414,14.070632999999999,3.0,-1.0
K9Fe2O7,mp-1199147,198,-4.410373441111111,2.76611239303906,-1.5666370764305555,1382.0946729968964,2.0603,11.138993,11.138993,3.0,-1.0
InSi4H38C14Cl,mp-1199230,2,-5.116477185517241,1.2116994739163156,-0.3235166041520678,1285.6322495519555,3.9306,9.682889,12.602371868170252,0.0,1.0
Pb(IO3)2,mp-1199242,2,-4.6388364272222224,6.086649098511952,-1.0572069702777784,607.8412685896018,3.0780000000000003,7.069738,13.379142252174091,3.0,-1.0
Nb2Pb2Se4O15,mp-1199265,15,-6.479352959130435,5.029642012956659,-1.9012428651358697,763.3369616501558,2.7,7.879152183444737,13.988352461258938,3.0,-1.0
Si4Ge(H3C)11,mp-1199342,2,-5.084749101836733,0.9972232555845566,-0.2943372352951013,1166.8186040449584,3.7710000000000004,9.623436,14.311517847520713,0.0,1.0
Si2BPH28C9,mp-1199409,14,-5.099870100914634,0.8028890567861128,-0.30238330845361155,1938.1096819119118,5.16,9.431222,15.846283999999999,0.0,1.0
LiZn2(BH4)5,mp-1199646,64,-3.861953367857143,1.1064122063187127,-0.19694971898452399,1272.5424157339585,5.229,10.116692330524684,15.888028,3.0,-1.0
Cs4PbO3,mp-1199752,4,-3.881652879375,5.179485117015052,-1.3777462588092666,1009.0156310790007,1.682,7.493587,12.109838590213535,3.0,-1.0
MnAs3(PbO3)3,mp-1199843,7,-6.1009411265625,6.391562158424736,-1.6754947538665723,1086.2804432570576,1.9583,6.698824037646384,13.810386845559574,3.0,-1.0
ZnSb2Cl2O3,mp-1199855,62,-4.7782465575,4.337860408367743,-1.6829410012837505,655.1006032541412,3.7206,5.6806,17.552625,2.0,1.0
MnSeO3,mp-1199914,14,-6.4045866485000005,3.8586372839482586,-1.661833807841785,626.2227800406959,3.5632,5.3610430000000004,14.020561894415858,3.0,-1.0
P2S7,mp-1199938,14,-4.540917100555556,1.8905018183742601,-0.636750346001985,1006.2568049446724,2.0353,6.7174580000000015,13.092934060865655,1.0,1.0
Cs3VS4,mp-1200171,62,-4.737808214375,3.3109258248839346,-1.5300491326616383,1159.3798561877386,1.9594,9.908672,11.74329,3.0,-1.0
PH9PtC3Cl2,mp-1200217,14,-4.90983492421875,2.6729369829957923,-0.4829682006357139,850.0255040829531,2.3985000000000003,6.749072,12.014841872722295,0.0,1.0
HgS2O7,mp-1200258,14,-5.3827757985,4.2391321546903065,-1.6858439605000002,590.2635540280036,2.6021,5.2840940000000005,13.252628,3.0,-1.0
Cs4(BS)9,mp-1200467,2,-5.369382840681819,2.6456106501739414,-1.053335375788597,1151.7599819550273,3.2448,10.631437,11.162212249245444,3.0,-1.0
V4Cd9O19,mp-1200595,1,-5.57052698390625,5.487241865272652,-1.8648621080859369,919.6285218095234,2.036,8.74566,13.163802280263667,3.0,-1.0
KIO3,mp-1200675,146,-4.453313932,3.796956620776359,-1.3790323383499996,748.7195803730519,2.8533,9.081494059322232,9.081494132365775,3.0,-1.0
Cs2InCl5O,mp-1200718,62,-3.427898846111111,3.0107178435034254,-1.7548534209346751,1266.1063580918162,2.6402,7.497733,14.652192000000001,3.0,-1.0
Ba3GeS5,mp-1200759,62,-5.034404330277777,4.150698025031976,-1.9516388103472213,1032.075108705749,2.0696000000000003,8.7425,12.210125,3.0,-1.0
In4As5(BrO4)3,mp-1200791,2,-5.4026747931250005,4.262151979693393,-1.6459626185416667,986.146440815715,2.963,8.168077,12.174321034759107,2.0,1.0
Ga4Ge(PbS3)4,mp-1200793,114,-4.454360001904762,5.069880938029224,-0.9656992139285708,1025.2428612711055,2.2137,6.2131680000000005,12.845672,3.0,-1.0
AlH6C2SeCl3,mp-1200831,57,-4.549172311538461,1.6480958003006363,-0.7880168033725956,976.7979597964244,4.9165,6.606856,13.427082,0.0,1.0
SiP2H18(C3Cl2)2,mp-1200839,14,-4.884380916290323,1.3273958161873276,-0.5313733758175118,805.7584031420787,3.8654,6.920692999999999,13.840422481741376,0.0,1.0
Cd3Pb2Se4(IO6)2,mp-1200930,13,-4.732878312826087,5.438854201410838,-1.3340252612771741,924.0372075490177,2.7771000000000003,5.514736,16.895375140179784,3.0,-1.0
B3Pb3NO10,mp-1200969,62,-6.8564253242647055,5.693860475827795,-2.057293359698822,965.9402882445545,3.014,8.037449,11.370934,3.0,-1.0
Re2S(ClO2)4,mp-1200983,15,-6.2072107045000005,3.7637115144044175,-1.7176925782443333,1189.9727945503205,2.0966,9.741843352677355,11.115958807371321,1.0,1.0
Ge2RuC4(Cl3O2)2,mp-1201091,14,-5.892809962352941,2.25905651114034,-1.1908490270329413,839.5963578482655,3.1025,8.660730000000001,12.21208235537658,0.0,1.0
GaH6C2SeI3,mp-1201119,14,-4.110838527692308,3.1241445388597184,-0.3425288205049034,1189.463835084954,2.6548,7.881552,13.075353,0.0,1.0
AsClOF8,mp-1201143,33,-3.807738818181818,2.7570542742143185,-1.8510991890027269,670.6138418217076,2.8689999999999998,5.375914,15.038974,0.0,1.0
TeS7Br2,mp-1201162,62,-3.62999887325,2.5950143503456,-0.5571905654375001,1310.1561586877208,2.0936,9.294203,13.92274,0.0,1.0
Pb3(NO4)2,mp-1201318,62,-5.967327092884616,5.902726825835072,-1.2743879132507685,875.0189510194427,2.1278999999999995,5.8895870000000015,18.925835,1.0,1.0
ZnIn2(SeO3)4,mp-1201376,14,-5.307311932894737,4.308619763373438,-1.5339044273355256,618.8570938374116,3.8857,4.896089,15.713749344071198,2.0,1.0
Cs5FeO4,mp-1201412,14,-4.229759765,4.672683453620748,-1.5100921034655181,1114.9711357862648,1.3287,9.11046,11.32004596431556,3.0,-1.0
Rb2Y(NO3)5,mp-1201420,144,-6.421842083188406,2.685638679215585,-1.5577167689413045,1057.0498705095843,3.3521,9.476222,11.349188761820464,3.0,-1.0
Cs3SbO4,mp-1201472,62,-4.878523365625,4.478473276206944,-1.9037895867241368,866.850622515797,2.7548,6.964100999999999,13.153725,3.0,-1.0
Rb3B(SeO4)3,mp-1201509,73,-5.474087405394738,3.1909958114591697,-1.7342603503262062,1448.926990388809,3.0595,14.827013664380194,14.827013664380194,3.0,-1.0
In2Hg6(PCl3)3,mp-1201574,4,-2.63933942125,5.349767734074973,-0.8968411200027141,1145.4643038324555,2.4934000000000003,10.541113000000001,11.074592242194967,3.0,-1.0
BPBr6,mp-1201622,62,-3.2110283228125,2.857075220726648,-0.4717487137797622,1211.7112001483804,2.7254,7.609116999999999,13.342845,0.0,1.0
NaZn2(BH4)5,mp-1201672,14,-3.86738755875,1.136200856688692,-0.22360786166309515,1332.9992547985617,6.1595,9.150922,16.754113,3.0,-1.0
LiFe(Se2O5)2,mp-1201692,30,-5.4708171278125,4.036131888000565,-1.4654279812630209,886.392790791743,2.0707,6.926543000136071,12.192722000296286,3.0,-1.0
Ba4NaGe3S10Cl,mp-1201802,173,-4.785236096842105,3.585698953486484,-1.6882166890970176,1061.7234993437273,1.8499,9.972635031181527,12.3271,3.0,-1.0
Ba2GaBiS5,mp-1201906,62,-4.787016644166666,4.681831120781826,-1.6624587767361112,1012.5076926285598,2.39,9.008778,12.376863,3.0,-1.0
Mn3Fe2(GeO4)3,mp-1201980,230,-6.980555570999999,4.965403232121392,-2.043873375592276,918.2111367469839,2.0602000000000005,10.605263956305473,10.605263956305473,3.0,-1.0
RbY(BH4)4,mp-1201985,14,-4.336769049318182,1.3438840477296854,-0.4276618288069691,1155.2847584165354,6.1336,8.442647000000001,13.661138483614387,3.0,-1.0
K3AsS4,mp-1202105,33,-3.9364933290625,2.233304488392516,-1.201208989875,953.1414116492014,2.0106,9.255608,10.815114999999999,3.0,-1.0
Ba6Zr(Zn3S7)2,mp-1202124,140,-4.628844228518519,4.282968990788906,-1.8050721764351847,1362.055108831859,1.8259000000000003,12.722459781761112,12.722459781761112,3.0,-1.0
Cs2Hg(BSe)9,mp-1202194,2,-4.908208835952381,3.8522109944377183,-0.4476272004502765,1098.6372228533958,1.8707,10.112744000000001,11.27099280868642,3.0,-1.0
ScV(SeO4)2,mp-1202200,14,-6.697942465833332,3.4176951230931065,-2.1403156424739582,742.0378184848593,2.6551,6.7269820000000005,16.237683999999998,3.0,-1.0
K2PS3,mp-1202353,14,-4.286146933125,1.9660855680309013,-1.277304707116072,1387.5986358782584,2.9173,8.517365,13.487610903737435,3.0,-1.0
BaP3NO11,mp-1202402,14,-6.9284181965625,2.5532227988719236,-2.377566899177768,1093.2674781643325,2.4613,7.2568100000000015,13.189492999267713,3.0,-1.0
InGe2P(H3C)8,mp-1202409,2,-4.9199080237500015,1.4918171943675334,-0.2260482800125393,915.7412812034488,3.3686000000000003,9.813482,10.358243827176981,0.0,1.0
Cs2Re(ClO)3,mp-1202505,62,-5.486022762222222,4.025002053422487,-2.0711470660435642,1000.6549417954687,2.3472,7.1898100000000005,12.867611,3.0,-1.0
BaSn2S5,mp-1202711,56,-4.6589580153125,4.175846193178983,-1.246075031015625,851.0926105421453,1.5453,6.75197,11.640125999999999,3.0,-1.0
S2I2O11,mp-1202716,33,-5.116880033833334,3.4515297489640737,-1.3371250258333334,950.5280342124507,2.6163,4.742706,18.587909,3.0,-1.0
MgHAu2F11,mp-1202806,14,-3.686511298666667,4.522832680993567,-1.8855892144473327,922.6058645100846,1.6960999999999995,5.45902,16.018924,3.0,-1.0
Ba3(AlP2)2,mp-1202948,62,-4.842491636388889,3.8922828561457283,-0.964579681309524,1006.5567653771741,1.2751,7.372671,11.701592999999999,3.0,-1.0
Sb2O3,mp-1202960,19,-5.9274277060000005,5.419679610801665,-1.72842792875,714.5475666275537,2.357,7.613405999999999,12.067859,3.0,-1.0
Cs2Ni2(MoO4)3,mp-1203005,198,-6.257878447236843,4.384494870318791,-1.9465630357032664,1307.3913404686928,3.8074,10.934574000000001,10.934574000000001,3.0,-1.0
Sr4Li2Ta2Al2N8O,mp-1203018,14,-7.2781664039473695,5.209607772044781,-1.5072232125591238,579.0164080814503,2.5803,6.052111,10.963535729481844,3.0,-1.0
NaZn2(BH4)5,mp-1203023,14,-3.8589479832142857,1.0769178745386678,-0.21516828612738084,1406.379196664668,5.7538,9.464019,16.653961,3.0,-1.0
Cs2Te4O9,mp-1203081,122,-5.191492927166665,4.8650203327355,-1.6864930816408044,1256.345983245707,2.7124,13.014183848177687,13.014183848177687,3.0,-1.0
Tl3Cr4AgO14,mp-1203083,15,-6.049186107272727,5.082815479316669,-1.507503317007577,753.3587455221582,1.9722,7.557633473778218,13.802300380876007,3.0,-1.0
KGaH9C3F,mp-1203242,219,-4.754703089666666,1.530401702863077,-0.594901980617999,1501.0220311718756,3.9788,12.851900507516856,12.851900507516856,0.0,1.0
SnH12C4(SCl2)2,mp-1203285,14,-4.5877883499999985,1.689676520817624,-0.5984440790317389,756.3092135185153,2.6859,7.250308,12.765721000000001,0.0,1.0
NaZn(BH4)3,mp-1203290,14,-3.8595300157352943,1.216770048401793,-0.2425058348101956,725.6278493285704,5.7661,4.477951999999998,18.834220796667566,3.0,-1.0
Ba2GaSbSe5,mp-1203387,62,-4.378709254444445,5.090691303125992,-1.2148652776909723,1123.3205372351147,1.8067,9.271603,12.808909,3.0,-1.0
Ag2Mo(I2O7)2,mp-1203404,15,-4.722517435,5.307991705092281,-0.9837020988492072,652.7579761325347,1.9605,7.0246999361773454,17.760581187509178,3.0,-1.0
KGa(SeO3)2,mp-1203541,62,-5.37405199225,3.923427234919816,-1.7136209705187495,614.0958766025807,3.2196,5.4222779999999995,15.245269,3.0,-1.0
Ba2GaBiSe5,mp-1203584,62,-4.3685123077777765,5.585604243519176,-1.2312202121354163,1127.5073101089654,1.7715999999999998,9.290113999999999,12.841301,3.0,-1.0
V2Pb4(Se2O7)3,mp-1203641,43,-5.848020594545455,5.4265347711234115,-1.6119950148579547,1065.1558660518672,2.4239,9.12041560536273,14.457384939264223,3.0,-1.0
NaZn2(BH4)5,mp-1203686,14,-3.8463458457142856,1.073842627751502,-0.2025661486273808,1410.406754329366,5.4529,9.460272999999999,16.508147,3.0,-1.0
Ba2GaSbS5,mp-1203806,62,-4.8020798880555535,4.115668168364566,-1.6509701395138892,1011.0286662432616,2.3953,8.971652,12.351732,3.0,-1.0
NaAuS,mp-1204074,68,-3.583228414583333,5.8227317146960935,-0.8960538734027773,1149.951736294541,2.0557,7.1917100000000005,13.069864891408253,3.0,-1.0
BeH12C4(SBr)2,mp-1204117,60,-4.733778548095239,1.7287882365010696,-0.4602924330804764,1126.070848325315,4.4445,10.106734,10.826105,0.0,1.0
Ag6Te4W3O20,mp-1204185,15,-5.663517626363636,6.718062906944418,-1.4119046407575764,1003.095215981693,2.4806000000000004,9.712406268743344,15.524125345217008,3.0,-1.0
Si3Ge2(H3C)11,mp-1204200,2,-5.056986045612245,1.1151798266366888,-0.28294736611142834,1176.0862161966686,3.5394,9.616017999999999,14.431340749566305,0.0,1.0
Si(H3C)4,mp-1204470,62,-5.109609140441176,0.6773988424369773,-0.3325928606435289,865.0661442424306,5.4051,6.865645,14.218704999999998,0.0,1.0
Rb6InP3S14,mp-1204523,15,-4.2431513,2.6798536437917644,-1.1807928047693454,1449.2787857835901,2.0216000000000003,11.574984972457544,13.384110633667074,3.0,-1.0
LiZn(BH4)3,mp-1204713,14,-3.8780038218382353,1.1635325386879043,-0.2260225438543135,1334.4255946352835,4.8749,8.840079,14.983120000000001,3.0,-1.0
Ba3GaS4Br,mp-1204726,62,-4.786388018055557,4.351888410686526,-2.084844240277778,1052.92475972884,3.0298000000000003,8.652492,12.53381,3.0,-1.0
Co2As2O7,mp-1204772,2,-6.1237565078181815,4.63518083393625,-1.6231628095227268,680.141354224305,1.7702999999999998,5.407731,16.2928645104078,3.0,-1.0
Cs3SbS4,mp-1204783,62,-3.8295577884375,3.4694579451384104,-1.2411618104741375,1241.9831335013778,2.1305,10.150372,11.947654,3.0,-1.0
Mn(BH4)2,mp-1204859,151,-4.525985603333333,1.2587833718715509,-0.12249621214683334,1004.6896463661192,1.8283,10.27996985265278,10.977858,3.0,-1.0
Sr4V2(Se2O7)3,mp-1204879,43,-6.124624454848485,4.018808930317437,-2.1338310953630053,1042.9874432455842,2.74,9.010791248102024,14.438227142078247,3.0,-1.0
AlB6H6(CCl3)2,mp-1205009,14,-4.989048622142857,1.5065518473874202,-0.7396670181561898,1475.35258547961,3.3489,9.304905999999999,14.658279975654578,0.0,1.0
Ba3GaSe4Cl,mp-1205081,62,-4.487414801111111,4.802182583086464,-1.8182475922372223,1152.162823406496,2.6088000000000005,8.892455,12.946745,3.0,-1.0
AlTeH6C2Br3,mp-1205099,57,-4.324781100384615,2.523803607005162,-0.5023474274399996,1116.8391046157526,3.717,6.963033,14.250019,0.0,1.0
VN3O10,mp-1205113,14,-6.479783690178572,2.0006164335531675,-1.2143567387242848,839.8264632251013,2.9996,5.939106,13.656928,0.0,1.0
BaZn(SeO3)2,mp-1205399,14,-5.49054648125,4.398244142083639,-1.9260934604687496,689.6289751640892,3.7883,5.65431,16.779551,3.0,-1.0
Zr(ClO4)4,mp-1207478,9,-4.843426798333333,2.187855561493796,-0.9627719394304758,742.3227164450645,4.5087,7.99845577104187,13.905290952549894,0.0,1.0
YAgS2,mp-1207671,4,-5.7130635953125,4.590388413345342,-1.6518118827083337,755.0408874327492,1.7896,7.660572,12.853924375570053,3.0,-1.0
WCl2,mp-1207828,64,-6.276784680833334,5.316466983167634,-1.1215085396733333,954.8048049188733,2.8308,9.222462116928485,11.516614,2.0,1.0
TlFe(SO4)2,mp-1208045,150,-6.037320785833334,3.876735053887309,-1.9531575071875007,775.034298936724,2.1001,8.35320001913566,10.350868224077148,2.0,1.0
TlPb2Br5,mp-1208111,14,-3.1650901125,6.2795263647384,-0.918642635,1077.1082486684597,2.9591,8.548314999999999,13.397252933113196,3.0,-1.0
V3Co10AsO20,mp-1208112,12,-6.564861928088236,4.912412674062576,-1.7377641651470581,768.7231194149863,1.5644,10.188525880153467,14.755249136964444,3.0,-1.0
Tl4SnI6,mp-1208143,55,-2.677480282272727,6.160112354475689,-0.6229112399999999,915.2584330243252,2.1939,4.659133,19.47989,1.0,1.0
Tl2Ni2(MoO4)3,mp-1208571,198,-6.199999280921053,5.2098587632688025,-1.7343417001315784,1282.5270324457442,3.8016,10.864811,10.864811,3.0,-1.0
TaP4(S2Cl)5,mp-1208658,2,-4.71906054425,2.257477330137428,-0.9935568128417857,1180.9738974306515,1.6545,10.12726,12.109277427987188,0.0,1.0
Sr2TlBr5,mp-1208773,14,-3.5717924915625,4.766772443966372,-1.8311364682291664,1085.6804291275046,3.9117,8.510129,13.51188962463874,3.0,-1.0
Sr2TlI5,mp-1208794,14,-3.109824746875,5.10254309864794,-1.4397399266666668,1320.148356213732,3.319,9.139503999999999,14.368773463085706,3.0,-1.0
Sr3SbI3,mp-1208807,214,-3.492880032857143,4.143397040856459,-1.5258110550000004,1226.8831721871395,1.8385,11.680865775754937,11.680865775754937,3.0,-1.0
Sr2InBr5,mp-1208825,14,-3.56305767875,4.2267077224543845,-1.7736478116666663,1083.6530781484641,3.4117,8.495661,13.515270923370199,3.0,-1.0
Sr(AuF6)2,mp-1208951,221,-3.4693235483333336,4.2259578427840605,-1.7837338190631111,1115.2112072334717,1.193,10.370166000000001,10.370166000000001,3.0,-1.0
RbSbCl6,mp-1209179,15,-3.079694620625,2.707992831790321,-1.5006144740075005,515.020866058618,1.9852,7.080215264177848,12.678045092264385,3.0,-1.0
Sb2Cl7F3,mp-1209192,5,-3.3846978466666666,2.510376027418668,-1.6099803701158335,725.8792120336999,1.5169,10.323797353060792,13.44392111463486,0.0,1.0
RbSr2I5,mp-1209221,14,-3.15445534625,4.321638036713884,-1.6570103894791663,1375.9270212306274,3.6702,9.193506,14.715584145610835,3.0,-1.0
RbSb2PO8,mp-1209255,9,-6.280951193541667,4.660636392372685,-2.22952234654762,695.4168468826953,2.2799,7.300362614665179,15.265866994521144,3.0,-1.0
RbP15,mp-1209298,2,-5.23929953375,2.1555364432788537,-0.10306065912946404,847.5103738496597,1.5054000000000003,7.609286999999999,12.88839912850956,2.0,1.0
Rb2Ti(AgS2)2,mp-1209316,132,-4.5501510877777775,3.79319057484976,-1.2819697949074078,492.75126451057815,1.5994,6.034007,13.533686999999999,3.0,-1.0
SbTe8Cl6O6F31,mp-1209318,2,-4.139411440769232,3.260679382113336,-2.0949967965182688,1039.0083638262752,2.2963,9.36618,10.814844520593626,0.0,1.0
RbAgTeS3,mp-1209320,14,-3.629139306666667,3.8569850995401986,-0.7332458722569454,718.3458618727861,1.8312,7.76295,11.006992,3.0,-1.0
Rb3Ta2AsS11,mp-1209358,9,-5.359511900294117,3.6547831776456174,-1.2701492874632356,950.4351455140522,1.8938,9.794687597536226,9.936591565445012,3.0,-1.0
Rb3MnBr5,mp-1209364,140,-3.7179157077777782,3.4359609969207696,-1.463699998017242,687.0934806420019,2.6812,10.198340684117737,10.198340684117737,3.0,-1.0
Rb2Hg3(GeS4)2,mp-1209424,14,-3.5293215196666665,4.406477533966144,-0.8691825939999996,885.2024855259172,1.7793,6.526447,13.471103092893095,3.0,-1.0
Rb2MnI4,mp-1209441,11,-3.5444280892857143,3.64594252829968,-1.0845959356650248,668.1352340737706,2.0997,8.169111000000001,10.284675637793539,3.0,-1.0