pretty_formula,task_id,spacegroup.number,final_energy_per_atom,density,formation_energy_per_atom,volume,band_gap,min_abc,max_abc,Dimension,Dim
Sr3(GeAs2)2,mp-17504,14,-4.457442515,4.630912181825148,-0.7962232827777771,1015.2413549829796,0.7976000000000001,7.559796,18.768998,3.0,-1.0
Ba5P4,mp-17566,62,-4.481668255833333,4.47184007629493,-1.0096685229761906,1203.9042420070716,0.9588,8.436569,16.738183,3.0,-1.0
Rb3SbSe4,mp-17638,62,-3.4942565965625,3.6913096974058535,-0.862475425546875,1248.7922743118668,1.3197,10.036214999999999,11.702074,3.0,-1.0
CsGaTe2,mp-17688,15,-3.292379000625,4.576590868265568,-0.7398540669827587,1328.922863439728,1.2835,8.576665212790925,18.31801626544189,3.0,-1.0
Cs3Na2SnP3,mp-17707,64,-3.2224533833333333,3.6855821011745733,-0.3819043845748951,1182.832880532841,1.0387999999999995,10.88369197510684,16.558183,3.0,-1.0
Sr5Sb3,mp-17739,62,-3.59171679125,4.428383475290034,-0.9874155429166672,1204.9939963591212,0.1004999999999998,8.823262,13.516784,3.0,-1.0
Cs3SbSe4,mp-17811,62,-3.4899041815625,4.020174245398887,-0.8900473982085129,1381.766954271505,1.7195,10.42683,12.192639,3.0,-1.0
Ba2Ge2Te5,mp-17885,33,-4.052569704166667,5.454702368459805,-0.8525139241666666,1288.2394808869758,0.7732999999999994,9.364861999999999,13.619469,3.0,-1.0
K2Al2Sb3,mp-17886,14,-3.5203821323214286,3.561967735582003,-0.3633888074642857,1855.1948329369736,0.9992000000000004,7.3461630000000016,16.908401665513534,3.0,-1.0
KGaTe2,mp-17965,15,-3.303943113125,4.045834634152348,-0.6976690357500002,1195.247249350146,1.2481,8.471714125257591,16.918360141529938,3.0,-1.0
Rb5GeP3,mp-17978,62,-3.1711514980555555,3.0453827093244072,-0.3083119645238092,1293.1499013071152,0.4614000000000002,5.4934330000000005,15.713284,3.0,-1.0
K4SnSe4,mp-18132,62,-3.521454553611111,2.982570755562332,-1.0286974920972225,1316.0247989578454,1.7397,8.388563000000001,15.004814000000001,3.0,-1.0
BaSbTe3,mp-18291,19,-3.883593027,5.795653649103472,-0.7880180549999999,1471.2796925089608,0.37599999999999945,4.617072,18.358501999999998,3.0,-1.0
Rb3AsSe4,mp-18305,62,-3.518620933125,3.6373390976869335,-0.8205751164843749,1181.7900241630796,1.227,9.842822,11.514588,3.0,-1.0
KAlTe2,mp-18347,15,-3.5791828978125,3.5988871631370447,-0.7935387385624999,1185.917088528462,1.894,8.464518417685436,16.820874528271855,3.0,-1.0
Sr3(GeP2)2,mp-18351,14,-4.789274422777779,3.798507855557572,-0.7928696543650796,930.3284506433906,0.9348,7.318105,18.278415,3.0,-1.0
Ba3AlSb3,mp-18439,64,-4.040596263928571,4.804951051065311,-0.9135259725,1111.7500596146706,0.4710999999999999,11.302054040974545,14.271428,3.0,-1.0
K3Na2SnAs3,mp-18447,64,-3.1303048952777783,3.038331150823556,-0.4694795236851854,1107.8146072005302,0.5772999999999997,10.888843648678083,15.614911,3.0,-1.0
K2Cd3Te4,mp-18531,62,-2.6288791619444445,4.608235989452759,-0.6774712848333332,1334.4596269230728,1.4375,7.44986,15.428009,3.0,-1.0
K2Se5,mp-18609,19,-3.3895233860714287,3.4198005038058086,-0.5751869171741072,918.6843873435178,0.9376,6.673388,19.812571,3.0,-1.0
RbGe,mp-1888,218,-2.9413921121875,3.5253471603378954,-0.1396111484375,2383.145073147488,1.015,13.357242999999999,13.357242999999999,3.0,-1.0
TaTe4,mp-202,130,-5.1473377021666655,7.4976183917070625,-0.2611414321666672,1837.3997235509487,0.0,9.374018,20.909906,3.0,-1.0
TlTe,mp-2048,137,-3.0159770996875,8.103293628623124,-0.2635001446874998,2176.9764814111318,0.0,6.290211,18.603482999999997,3.0,-1.0
KGe,mp-2146,218,-3.0278427540625,2.749911095209613,-0.16112935306249998,2159.1483472604696,0.9106,12.924909,12.924909,3.0,-1.0
RbPb,mp-21525,142,-2.5637325978125,5.2951855861966175,-0.2171420265624997,1468.4624212688138,0.40500000000000025,13.14704887681764,13.14704887681764,3.0,-1.0
KPb,mp-21526,142,-2.64267272,4.934516760612845,-0.2311497115000001,1326.1292856936118,0.3735,12.716302366185774,12.716302366185774,3.0,-1.0
Ba5Ge3,mp-21538,130,-3.4341732134375,4.824419807510796,-0.5011809990625,1245.3716511568332,0.0,8.603318,16.825463,3.0,-1.0
Na3InSb2,mp-21547,14,-2.8687338554166666,4.0136767498185435,-0.37646004541666667,1414.2852498404534,0.28469999999999995,8.038518,16.837284606133498,3.0,-1.0
Na3InP2,mp-21577,14,-3.3010801372916667,3.013489557239024,-0.3807114534821429,1083.2684979829464,0.6425000000000001,7.400297,15.449654751097613,3.0,-1.0
Ca9Zn4Sb9,mp-21594,55,-3.549437566363636,4.563847441676387,-0.8107837245454544,1250.305462149566,0.0,4.561063,21.918585999999998,3.0,-1.0
Na3InAs2,mp-21622,14,-3.107013990625,3.7465887874445762,-0.4380344589583327,1182.9566008086772,0.1482000000000001,7.603700999999999,15.891263130829751,3.0,-1.0
K2In3AgSe6,mp-21705,15,-3.608888540625,4.36118713358382,-0.7518990445190971,1529.5323315216476,1.0584000000000002,8.415861764094037,21.808846629233376,3.0,-1.0
K2In3CuSe6,mp-21713,15,-3.709517011041666,4.3513868648379175,-0.7469732927135411,1465.3217340167569,0.7267000000000001,8.249925948637904,21.72278682609048,3.0,-1.0
Sr(InSe2)2,mp-21733,70,-4.019046460535714,4.903730531471643,-0.9938329428273808,1715.0708166546774,1.5637,13.110424476359453,15.82456159557926,3.0,-1.0
K2In2As3,mp-21741,14,-3.5125746810714285,4.117578758886344,-0.4123574569285715,1718.2890067342096,0.7807999999999997,7.273277999999999,16.139919786965393,3.0,-1.0
Rb2In2Sb3,mp-21760,14,-3.1776222101785714,4.675410177979057,-0.3417023066071425,2176.0255508838704,0.7399999999999998,7.757936999999999,17.70024537431391,3.0,-1.0
Ba(InSe2)2,mp-21766,70,-4.092569836785715,4.901912836591854,-1.0345720938392855,1850.4140633883485,1.6869999999999998,13.401661197792794,16.371606370994385,3.0,-1.0
Sr(InS2)2,mp-21781,70,-4.43698921625,3.931236144284532,-1.4248737618452385,1505.4739947299813,2.1496,12.522781601751745,15.107181439431946,3.0,-1.0
Rb4PbO3,mp-21801,61,-3.96137368484375,4.659621534771096,-1.4149012140624997,1702.2104594082693,2.1723,6.928914999999999,20.052157,3.0,-1.0
Cs2In2Sb3,mp-21835,14,-3.165789743035714,4.927050752669267,-0.35419318244458103,2320.691579901818,0.7882999999999996,7.7939630000000015,18.435780612915746,3.0,-1.0
K2In12Se19,mp-21836,148,-3.695733676363637,4.643246845228816,-0.6150269875918558,2114.4570153887266,0.8491,14.594349128349952,14.594349513909314,3.0,-1.0
Ba4Ge20Au3,mp-21839,223,-4.315258598148148,6.463464590018124,-0.2427369299999997,1332.347547511299,0.0,11.003711000000001,11.003711000000001,3.0,-1.0
Na15Pb4,mp-21895,220,-1.9558234863157893,3.289669644210366,-0.1363302478947366,1184.8520608453302,0.0,11.545923429388056,11.545923429388056,3.0,-1.0
Ba(InS2)2,mp-21943,70,-4.503016089107144,4.0119846119070015,-1.4581164094642862,1639.7613006555844,2.2042,12.878909507788654,15.690465557137331,3.0,-1.0
K4PbO3,mp-21949,61,-4.09517276859375,3.68029693689862,-1.4837678605625002,1485.670555164586,2.279,6.667014999999999,18.971481,3.0,-1.0
K9Fe2Se7,mp-21960,198,-3.7359648952777778,2.898798706189177,-0.8801328604670139,2328.6847050474616,0.3793,13.254710000000001,13.254710000000001,3.0,-1.0
In2S3,mp-22216,141,-4.11546893625,4.365749954306102,-0.931001524125,991.4541332367087,0.8348999999999998,17.33046507814124,17.33046507814124,3.0,-1.0
FeSb6(Pb2S7)2,mp-22369,14,-4.5672067904,5.451699674417983,-0.6985485209499995,1257.4220152070202,0.0,4.043943,19.483874,3.0,-1.0
HgP14Pb,mp-22574,62,-4.99988288890625,3.792974846588993,-0.012237295468749744,1473.4769074393537,1.3011,9.905078,13.423845000000002,3.0,-1.0
Sb8(PbS5)3,mp-22737,15,-4.405235976923077,4.779259890765498,-0.7027437025721153,1443.0547131421615,1.6195000000000004,8.976820332973642,18.197122146746853,3.0,-1.0
Ba2In2S5,mp-22841,61,-4.64109650875,4.250552618104473,-1.6737344582638891,2077.1307091650892,1.9867,11.994049,13.398992999999999,3.0,-1.0
In5S4,mp-22846,205,-3.7244812169444437,4.5450401224388,-0.6522169816666666,2052.839283276913,0.0,12.709203,12.709203,3.0,-1.0
Cs3Mo2Br9,mp-23015,194,-3.9332693328571433,4.205807444271583,-1.1397099016995074,1034.2184097810348,1.0076,7.912445790359008,19.074806,3.0,-1.0
Cs3Sb2I9,mp-23029,194,-2.6698859,4.285005322898856,-0.9084342477709362,1382.974725490726,1.8674,8.572411511815798,21.730893,3.0,-1.0
PtBr3,mp-23165,148,-3.002748329375,6.014769329223499,-0.25732649687500003,1440.4457517468036,0.9388,13.747592520121115,13.747592701538153,3.0,-1.0
SnI4,mp-23182,205,-2.3952767285,3.4910330908491938,-0.3741522655000001,2383.344726160168,2.0284,13.357616,13.357616,0.0,1.0
Ta3I7,mp-23238,64,-5.100216093249999,5.916593574267447,-0.4760739737500003,1606.6825294470327,0.8864000000000001,11.16276819475443,12.922597999999999,2.0,1.0
BCl,mp-23256,19,-4.81323607265625,1.5020028485454266,-0.8466146988695828,1636.7091064111826,0.9011,8.267917,14.588825,0.0,1.0
GeI4,mp-23266,205,-2.4080532975,3.5693177787327643,-0.2642376344999999,2159.6079434195667,1.996,12.925825999999999,12.925825999999999,0.0,1.0
InCl,mp-23276,198,-3.1137373115625,4.038728522768305,-1.1109699581925003,1977.1043459470573,2.1876999999999995,12.550948,12.550948,3.0,-1.0
Tl3PbI5,mp-23380,19,-2.6977474730555566,6.493520243172172,-0.6513397969444443,1488.1741290188418,2.6118,9.122599000000001,16.58972,3.0,-1.0
Tl4Bi2S5,mp-23408,62,-3.853249752727272,7.225973013730136,-0.7085561277840905,1283.0449131201844,1.0173,4.153554,17.772880999999995,3.0,-1.0
Nb3Se12I,mp-23410,128,-5.17069825890625,4.817153850760336,-0.5595191672265623,1865.7887181830386,0.07420000000000028,9.801426,19.421552,1.0,1.0
Ge19(PI)4,mp-23420,218,-4.291449650185185,5.470406839522712,-0.010459903862433685,1221.2844799883514,1.0766000000000004,10.689046000000001,10.689046000000001,3.0,-1.0
Hg6Sb5Br7,mp-23453,205,-2.2345363252777783,6.593008830818848,-0.34978220472222193,2389.3475455976063,0.9487,13.368820999999999,13.368820999999999,3.0,-1.0
PBr2N,mp-23457,62,-4.576880599166667,2.6656940403883858,-0.4169778169045237,1530.8249321383496,3.0519,7.016462,15.246231,0.0,1.0
Cd7(P2Cl3)2,mp-23476,205,-2.948551733970588,4.179314582827503,-0.8522883441968068,1785.5550987292695,1.7985,12.131777,12.131777,3.0,-1.0
Cs3Cu2I5,mp-23481,62,-2.8644442145,4.281340323505602,-1.0139758613793102,1800.1600633445896,2.4429,10.419578999999999,14.592535,3.0,-1.0
SbPCl8O,mp-23574,62,-3.5294180611363632,2.1650105050786497,-1.3640762080364934,1387.8117224747918,1.8686,8.553649,17.355109,0.0,1.0
Ag2Hg7(As2I3)2,mp-23592,205,-2.0421080785526318,7.107699751541366,-0.16992787478070165,2505.3795469078423,0.6326999999999998,13.581816,13.581816,3.0,-1.0
Hg6S4IBr2Cl,mp-23652,62,-2.083307587142857,6.411819169579233,-0.5286105636257142,1713.382243075744,1.4271,9.701924,13.334675,3.0,-1.0
P4Se5,mp-2447,33,-4.398458626388889,3.0996719764606344,-0.05038075594494037,1111.4897284575952,1.8262,6.939585000000001,13.557934,0.0,1.0
Cs4Sn23,mp-2496,223,-3.7147001966666666,5.248617780200224,-0.16648678358237556,2064.00947324446,0.0,12.732213,12.732213,3.0,-1.0
BiPS4,mp-27133,73,-4.59944252,4.037435658320482,-0.7335625801785716,1211.5294015721438,1.4875999999999996,12.6414289754453,12.6414289754453,3.0,-1.0
Cs2Sb4S7,mp-27146,14,-4.191905226923076,3.7416457734523294,-0.913617629056698,1734.9099637311213,1.5895,11.596722,12.492942999999999,3.0,-1.0
ZnI2,mp-27161,142,-2.0554328656250003,4.047196708220733,-0.6195099189583336,2095.5694455982525,2.9076000000000004,15.04499410363414,15.04499410363414,3.0,-1.0
Ga(Ag3Se2)3,mp-27163,198,-3.267316629375,6.929543293027072,-0.17378110447265582,1451.494788903424,0.0,11.3224,11.3224,3.0,-1.0
AuBr3,mp-27213,14,-2.202646781875,4.8460943068884825,-0.15648149187500016,1197.0412087783916,0.8069000000000001,7.049571,20.812713000000002,0.0,1.0
SrAl,mp-27233,198,-2.886856516875,2.92334946768121,-0.1693279752083332,2083.0936189229637,0.0,12.771334,12.771334,3.0,-1.0
ReCl4O,mp-27297,14,-4.9417834325,3.0934336792803765,-1.324184005715,1477.3382643512598,0.647,6.152725,19.749868555652945,0.0,1.0
Ca11Bi10,mp-27298,139,-3.7092653945238094,6.1404902275636735,-0.8063157859523811,1368.7060673093504,0.0,12.509098872052775,12.509098872052775,3.0,-1.0
Al2Hg3Cl8,mp-27346,14,-2.9237746646153844,3.666815669747907,-1.5058515439292306,1701.57353373046,2.4938,7.300311,15.918303,0.0,1.0
BaBiSe3,mp-27365,19,-4.293331609,6.169071786363062,-1.0339836944062497,1255.8199928742254,0.7326999999999999,4.402846,17.178484,3.0,-1.0
NaAsSe2,mp-27374,61,-3.78903866328125,3.801741699708951,-0.5476402690364583,1787.8878333422128,1.2044,5.916855,24.992137,3.0,-1.0
LiTe3,mp-27466,229,-3.2152176554166663,5.409895533797263,-0.3805112412499998,1435.5474755014084,0.2296999999999993,8.778074796483851,21.512376999999997,3.0,-1.0
TlSb3S5,mp-27515,14,-4.2198601319444435,4.849827660845921,-0.6516816836805559,999.7667340612179,1.5863,7.4797020000000005,15.953889000000002,3.0,-1.0
Cd4As2I3,mp-27528,205,-2.3110566973611117,5.5241013176109055,-0.3575196201388889,2357.178208619955,1.1726,13.308551999999999,13.308551999999999,3.0,-1.0
Rb9O2,mp-27561,11,-2.234855227272728,1.9697843768162389,-0.6606609009090909,1350.8471898451207,0.0,8.434792999999999,14.087193,0.0,1.0
Ba10Al3Ge7,mp-27568,193,-3.6011671295,4.635057845002134,-0.4617855907500001,1406.2957548008233,0.0,9.878420286435935,16.640679000000002,3.0,-1.0
Ge19(PBr)4,mp-27625,218,-4.386627567962963,5.123830975258882,-0.08890983275132247,1182.0362671812604,1.4182,10.573293,10.573293,3.0,-1.0
Ge19(AsI)4,mp-27626,218,-4.17943117537037,5.709109158078524,-0.010169941111110841,1272.4822010425748,1.0131,10.836372,10.836372,3.0,-1.0
ReCl5,mp-27645,14,-4.126027202291667,3.3743217782407613,-1.007063524175,1430.947005723698,0.0,9.557813000000001,12.876718823720589,0.0,1.0
Te2I,mp-27655,62,-2.662093419583333,5.055947467434204,-0.05855526124999985,1003.9651781104976,0.6635000000000004,4.164434,17.074691,1.0,1.0
TaPS6,mp-27673,142,-5.79510636890625,3.0370069251527445,-1.0314810323214294,1768.5182633251372,0.8658000000000001,13.27959923891124,13.27959923891124,3.0,-1.0
LiP7,mp-27687,142,-5.1342107565625,2.157539526511367,-0.15897026947916704,1377.7093396608304,1.6559999999999997,12.160801298536049,12.160801298536049,3.0,-1.0
In2(PS3)3,mp-27753,14,-4.567199925892857,2.8767531483796334,-0.7814760797385206,1411.070868872907,1.4404999999999997,7.4110210000000025,18.55166112318929,2.0,1.0
W3Br8,mp-27765,64,-5.149682332727274,5.422800536980791,-0.4251558118181817,1458.5011572142114,0.0,10.005145457419847,14.816947,1.0,1.0
Hg(Mo3Cl7)2,mp-27779,201,-5.238601077976192,3.7789828840952113,-1.289484305625714,2236.7452681037907,1.7411000000000003,13.077925,13.077925,3.0,-1.0
TcCl4,mp-27780,61,-4.09404697125,2.538048412909393,-1.0188422078579995,1255.1918004842098,0.7828999999999999,6.151825,15.441379000000001,1.0,1.0
CsReBr4,mp-27783,61,-4.171087875208333,4.5144461918221,-0.8564819223635057,1879.5369394371728,0.4053,10.601624000000001,13.565057999999999,3.0,-1.0
K4Ge23,mp-27800,223,-4.096376901851851,4.432868064082983,0.006261485296296546,1368.8622371972956,0.0,11.10333,11.10333,3.0,-1.0
RbTiI3,mp-27812,185,-3.654294807,4.221622254024274,-0.9646820201666666,1213.1788447065912,0.0,7.009562,14.13681755254449,3.0,-1.0
Sb6Pb4S13,mp-27907,1,-4.392840286304348,5.485576388611864,-0.7070375041576082,1196.4342025836454,0.8506,3.9584080000000004,17.991037483305874,2.0,1.0
Tl3AgI5,mp-28043,190,-2.4372804563888892,6.5848037935919965,-0.48866067657407397,1367.346966828099,1.0507,10.809415258618202,13.512748,1.0,1.0
B9H11C2,mp-28052,15,-5.3689199633522735,1.0118149894408366,-0.17777493550318207,1738.4065449492664,3.6606,11.262145171043615,22.63239294080812,0.0,1.0
P4Se3I2,mp-28089,122,-3.991812890555555,2.9413086120702636,-0.08193476736855132,1387.8730271183747,2.0711,12.388911606063544,12.388911606063544,0.0,1.0
Na4SnTe4,mp-28108,19,-3.1286265941666667,3.996398206635072,-0.7018061006481481,1198.4425078432173,0.9417,8.746528,15.410197,3.0,-1.0
K2GeTe4,mp-28126,14,-3.3228326260714285,3.9272993210474336,-0.5489712733571429,1118.3351375142058,1.1202,8.803078999999997,12.874825755853825,3.0,-1.0
Ba(SbS2)2,mp-28129,14,-4.65112501875,4.337349120928867,-1.212706050535715,1559.278792662152,1.4617,8.380887,20.88952390093298,3.0,-1.0
Nb(PS4)2,mp-28130,118,-5.341789065227274,2.3480174577038406,-0.9134440017857136,1163.7093009347095,0.0,7.717613,12.279502,3.0,-1.0
Ba2As2S5,mp-28134,29,-4.852328111527778,3.8539764226515687,-1.4610916888194447,2015.829893316928,1.3721,9.397459,17.71634,3.0,-1.0
Te2PdCl10,mp-28176,14,-2.8765179994230765,2.6580990226476158,-1.0299800426999999,1789.5421388193204,1.5543,7.781478999999999,21.473945178363593,0.0,1.0
RbInI4,mp-28198,161,-2.5288919494444446,3.705752838391608,-0.890847239027778,1903.2597703522558,2.5376000000000003,15.123174516126733,15.123174629084001,3.0,-1.0
IrS3Cl11,mp-28211,14,-3.071044048833333,2.4756630780555016,-0.8677266645156668,1820.120694243924,1.8439,8.543774,15.953614171600522,0.0,1.0
ReBi3O8,mp-28287,198,-6.751232061041668,7.698849943880877,-1.9112359056250003,1623.9364521864813,2.7284,11.754108,11.754108,3.0,-1.0
Na4GeSe4,mp-28292,62,-3.530532817222221,3.1971269709792707,-0.8788347469675925,1996.2619287144541,1.7906,7.229127,28.917108000000002,3.0,-1.0
Ba3GaSb3,mp-28296,62,-3.929214386428572,5.066744189811862,-0.9046412846428576,2220.676581404215,0.3418999999999999,7.241805,21.455997,3.0,-1.0
OsBr4,mp-28301,61,-3.63630535775,5.179525439724613,-0.08129723574999942,1307.639799517628,0.0,6.433247,15.464289,1.0,1.0
Na3SiSe4,mp-28303,14,-3.79003051921875,3.1260608222102606,-0.8709159466406251,1754.6119485412987,1.7564,7.384542999999999,17.294454,3.0,-1.0
Ba7Ga4Sb9,mp-28314,59,-3.89864450125,5.315716209833521,-0.7633350522499999,1459.466223468496,0.0,7.224715,18.385337,3.0,-1.0
Pt3I8,mp-28320,92,-2.9177645075,6.644791908361148,-0.1536895938636359,1599.8529300825644,0.8003999999999998,11.09447105,12.0084438,3.0,-1.0
CsTlI4,mp-28332,14,-2.30122161625,4.422738181761571,-0.7423706475718391,1268.897603466604,1.238,7.654763000000001,19.468636,3.0,-1.0
Zr6CI14,mp-28344,64,-4.893167757142857,4.8682558200390105,-0.9955886576190476,1593.6089215876855,0.7963999999999998,11.019131468869997,13.142053,2.0,1.0
Ba2As2Se5,mp-28348,4,-4.439054386666666,4.915204601683904,-1.0350837357465277,1107.156359098384,1.0223,9.595481,12.627872,3.0,-1.0
NaTe,mp-28353,60,-2.9381770510416665,4.048151484579065,-0.7092004777083329,1482.5148468220762,0.5388000000000002,9.223614,16.026804000000002,3.0,-1.0
PAuCl8,mp-28387,74,-2.865831734,2.6580630675863977,-0.9940342124651428,1278.3331848870544,1.2867,12.014455435672724,12.014455435672724,0.0,1.0
Sr5(AlSb3)2,mp-28392,62,-3.933097668076924,4.683902121945388,-0.8013618706410258,1733.7795116641669,0.7905999999999995,10.411289,13.655213,3.0,-1.0
P3Se4I,mp-28393,14,-4.025713429375,3.072719731693233,-0.05727391563616058,1157.9239138581174,1.6465,7.043551,15.069138145178243,0.0,1.0
Tl2PSe3,mp-28394,14,-3.759912138541667,6.1287079009630565,-0.3225244294754468,1466.611967826341,1.5513999999999997,9.216249000000001,12.84388139417754,3.0,-1.0
Sr4Bi6Se13,mp-28397,11,-4.248445350652173,6.316969041210964,-0.9638809992232792,1383.136929995224,0.4887000000000001,4.27493,18.732844799021024,3.0,-1.0
K3Nb2Se11,mp-28428,14,-4.6226091253125,3.9548649432241074,-0.7483070518613277,1967.804160630277,1.0590000000000002,8.122494999999999,26.44960514431654,3.0,-1.0
TlAs5S8,mp-28442,14,-4.356920286785714,3.747396911963708,-0.5396942910714283,1480.92042218045,1.628,8.156402,15.987804814229937,3.0,-1.0
Re3(TeI)7,mp-28464,2,-4.276473172058823,5.866164251051277,-0.1585451502941177,1324.8569705977993,0.9005999999999998,11.160404,12.435748540432739,0.0,1.0
KAg5S3,mp-28468,190,-3.3873284850000003,5.2644771353558815,-0.5326453111898152,1276.772506004186,0.6972999999999998,8.054841999999999,13.528913818468132,3.0,-1.0
NaTe3,mp-28478,165,-3.0747667754166668,5.043743927237071,-0.38862802375,1603.1656827236902,0.6985000000000001,9.133633936893355,22.190167000000002,3.0,-1.0
Zr2P,mp-28511,65,-8.582145594074074,6.1817628101093405,-1.0792498869312173,1031.9246011692417,0.0,3.637722,17.636740512274258,3.0,-1.0
Rb3Mo15Se17,mp-28539,176,-7.078935684428573,5.8248445027552105,-0.6487430333526788,1732.037458079979,0.0,9.714620252782092,21.192149,3.0,-1.0
CsAsSe2,mp-28563,61,-3.7655062559375,4.067285765524937,-0.6289203228421334,1194.579979251284,1.4159,6.893936,17.162841,3.0,-1.0