pretty_formula,task_id,spacegroup.number,final_energy_per_atom,density,formation_energy_per_atom,volume,band_gap,min_abc,max_abc,Dimension,Dim
AsBr5F6,mp-28647,15,-3.1851207266666663,3.0094765981934897,-1.4045330676783332,649.3583346063947,1.6707,7.39783194262515,12.64395474882226,0.0,1.0
NaGaBr4,mp-28679,62,-2.9407914395833337,3.2075392194386816,-1.1257157930555557,853.8483651555887,3.4888000000000003,7.722672,14.238862,3.0,-1.0
KGaBr4,mp-28680,161,-2.9985036083333334,3.0744751516234587,-1.2174701734166666,1388.4064872593694,3.5772000000000004,13.620969604844325,13.620970262380354,3.0,-1.0
CsSbS6,mp-28701,14,-4.1005125725,2.827145674049464,-0.8677197208351295,1050.3216012256732,1.7828,6.144324,15.505977,3.0,-1.0
BaGe2S5,mp-28710,227,-4.8131557440625,3.334155101494977,-1.246908759765625,882.389531929673,2.1848,10.766100966003338,10.766100966003338,3.0,-1.0
Pt(SCl4)2,mp-28721,14,-2.9597103068181814,2.773199000932002,-0.8644652833936362,650.0822375401633,1.9064,6.7649399999999975,13.044227365773187,0.0,1.0
Al7(TlS4)3,mp-28759,4,-4.760042215,3.503318481283161,-1.351866389886364,1125.0640714870676,2.7777,9.205085,12.627460000000001,3.0,-1.0
SbSCl9,mp-28772,166,-2.718056377272727,2.2543563933286697,-1.0010882047695453,696.6708972876994,1.6343,9.086214601185743,9.086214849752619,0.0,1.0
Na4Ga2S5,mp-28773,14,-3.9225630652272727,2.602312819923518,-1.3153131374053029,999.8538094879898,2.4813,6.178457,20.11294055352665,3.0,-1.0
MoAs2O7,mp-28775,14,-6.40850275125,3.783801272297848,-1.7732489391250006,628.0520185440813,2.5302,4.681369999999999,17.43498973326285,2.0,1.0
K3CoO2,mp-28825,62,-4.147377514166666,2.5876174323371246,-1.304569918583334,534.4977036300444,1.6284,6.0558672589629134,11.969473038311836,3.0,-1.0
Li2ZnBr4,mp-28829,62,-2.930790673571429,3.680935683306175,-1.2700341730952385,719.8176924898022,3.7769999999999997,6.529074,13.814962,3.0,-1.0
Na2ZnBr4,mp-28830,62,-2.8004186289285715,3.2428566584960463,-1.3094537427380952,882.8017387517947,3.7462,6.865335000000001,14.773969000000001,3.0,-1.0
K3RhCl6,mp-28837,14,-3.61593689275,2.5883632455147887,-1.7940758356059998,1110.9382225940096,1.7025,7.568152,12.735323672666235,3.0,-1.0
Si3PH9,mp-28842,14,-4.0286392148076935,0.9755202888409528,-0.11734245528087905,846.3498618645546,4.2571,6.360305,13.157292000000002,0.0,1.0
Pb(IO3)2,mp-28857,60,-4.6431333519444475,6.227450424532652,-1.0615038950000004,594.0981071361819,2.7064000000000004,5.639743,17.056504,1.0,1.0
Na2HgS2,mp-28858,61,-3.0047247057499997,3.982126073099007,-1.0289317993333338,1036.4889755526244,2.2078,7.4868320000000015,18.352759,3.0,-1.0
K2HgS2,mp-28859,57,-2.995507707,3.4813220276892363,-1.1014161084500005,654.2645654227033,2.1351,7.431253999999999,10.839199,3.0,-1.0
PSe,mp-28885,14,-4.5316190121875,2.7654143913790232,-0.07702034264508928,1056.1848935675791,2.2456,7.439375,12.779191500430885,1.0,1.0
Br2O3,mp-28933,14,-3.4100503535000004,3.1327825106316762,-0.2078804562500004,881.1854949027147,1.7938,8.242364,12.000899605576114,1.0,1.0
NaSn2Cl5,mp-28947,58,-3.5276909290625,3.130125751217623,-1.5773095777666666,928.7499744339214,2.9784,8.639932,12.174294999999999,3.0,-1.0
K3BiSe3,mp-28980,198,-3.481606688928572,3.7828300428769546,-0.951754462647322,988.827270179593,2.0675,9.962617999999999,9.962617999999999,3.0,-1.0
P2SO3,mp-29006,14,-6.353292544166668,1.9581812005738333,-1.8471995448363097,963.4015687988267,3.7573,6.759773,12.15412760997518,0.0,1.0
P2S3,mp-29014,14,-4.810129879250001,1.7427372869295197,-0.5610216145535724,1205.4683911900404,2.4837,7.535943,13.203731,0.0,1.0
P4SeO6,mp-29020,14,-6.410071877954545,2.2967008388128467,-1.8079766292390416,864.2910667816707,3.1649000000000003,6.756310000000001,12.378083752140352,0.0,1.0
K2GeSe4,mp-29022,14,-3.7281397807142858,3.389613999948487,-0.7527866864821426,914.4813843462275,1.7903,8.472773,12.223711472786205,3.0,-1.0
Ga3Bi5Cl12,mp-29075,167,-3.39580701725,4.27742918388119,-1.2167735283310002,1304.0014766989675,1.8019000000000005,12.443587363612034,12.443587720628205,0.0,1.0
CsAlBr4,mp-29103,62,-3.32403745875,3.1858390375081687,-1.4592567317385057,999.7158536917917,4.2538,7.749206,12.594726,3.0,-1.0
K2Te2O5,mp-29129,14,-5.0924251825,4.004232166738931,-1.7884555049722226,685.7306910268068,3.3858000000000006,5.610081,15.485722,3.0,-1.0
Hg2Mo5O16,mp-29148,13,-6.384325724565217,5.178548054885695,-1.8142725341304344,729.0915109226837,2.3426,5.640231,14.572982672972612,3.0,-1.0
Rb3BiSe3,mp-29168,198,-3.4149231039285715,4.1619990196188015,-0.9407272524330358,1120.7465157603767,2.1254,10.387295,10.387295,3.0,-1.0
V2Se3O11,mp-29173,14,-6.17371559140625,3.641302777082005,-1.6740989208300778,938.9750474607413,2.1662,6.428825,15.401878480842555,3.0,-1.0
SiCl2,mp-29174,19,-4.0221794325,1.6461248217189932,-1.3778407746733332,399.4332649444606,2.0198,4.02709,13.796232,0.0,1.0
SnCl2,mp-29179,14,-3.5612345883333334,3.5686580446526364,-1.388809985506667,705.8446546857613,3.0565999999999995,4.342861,16.31371140904255,1.0,1.0
P4(S2O)3,mp-29204,11,-5.464322861538461,1.7865563221477312,-1.2160090882142864,677.1760365043965,3.2713,6.965406,13.003086999999999,0.0,1.0
Tl4PbI6,mp-29212,55,-2.6888710586363644,6.405994983935914,-0.6612951786363636,926.0040008918961,2.3258,4.680317,19.543549,1.0,1.0
Te6Br2O11,mp-29251,63,-4.971824691315789,5.4415501877635455,-1.348878437828947,672.2055258520409,2.5327,6.968580304367956,15.938436,1.0,1.0
SICl7,mp-29264,14,-2.257340245,2.318449048533271,-0.7269003206605559,1166.4222795089536,1.6611,8.87679,13.049988,0.0,1.0
Ca2Sb2S5,mp-29284,14,-4.7546100338888895,3.446822787777164,-1.4619265256250007,932.6880066169805,1.5290999999999997,5.7377769999999995,15.207761062110526,3.0,-1.0
I2(OF2)3,mp-29291,14,-3.689839544772727,3.6485623337241657,-1.4799920503081816,756.9535917932594,2.3843,8.746055,10.084646648602863,0.0,1.0
Ba4Ga2S7,mp-29301,11,-4.884900592307694,4.056829365670144,-1.9585157159134616,747.5883670646934,2.6355000000000004,7.221752,11.970790180392273,3.0,-1.0
Si2H6S,mp-29309,60,-4.033004013055557,1.0340410800486115,-0.28166647137166634,1211.2607174476298,4.4872,8.480189999999999,15.493746,0.0,1.0
Si2H6Se,mp-29310,96,-3.9245082095833337,1.4549196255026111,-0.17062382225708306,1289.0479610293041,3.7464,9.006994,15.889467000000002,0.0,1.0
InI2,mp-29312,52,-2.4467990691666666,4.3617951908551875,-0.5135627491666664,1122.6926677429806,1.7858,8.546789,11.605143,0.0,1.0
LiGaCl3,mp-29344,62,-3.44253906775,2.579428832242645,-1.7028248078726669,942.5864758504567,3.6888,6.226594,15.310423000000002,3.0,-1.0
LiGaI3,mp-29345,11,-2.681171504,4.183903671721732,-0.7793602611666668,726.109506410107,2.2483000000000004,7.2849270000000015,11.576869,3.0,-1.0
Na2PdCl4,mp-29359,130,-3.4192697828571434,2.7051625645350343,-1.5871854756723809,722.3961473196634,1.4226,7.6843309999999985,9.695822999999999,3.0,-1.0
Na3InS3,mp-29375,15,-3.7119914621428567,2.5661902703744546,-1.2670471791964286,724.6875892134168,2.7744,7.467005163747042,10.537037072267516,3.0,-1.0
K3BiTe3,mp-29379,198,-3.1700779121428573,4.023841034311622,-0.7913444920000003,1170.4709274257366,1.5607,10.538696,10.538696,3.0,-1.0
Rb3TlCl6,mp-29384,14,-3.12875494,3.3379693043730514,-1.846118834206,1340.1931101325938,2.274,8.07853,13.50280876875478,3.0,-1.0
K2Ge2Se5,mp-29388,11,-3.9116306666666665,3.2791421005972183,-0.6953627786354164,1252.3671335592776,1.8022,10.074855,11.913122999999999,3.0,-1.0
SbCl3F2,mp-29391,82,-3.5538387637500004,2.6372841408997374,-1.765229690776667,670.2284155338755,1.8445,10.161718908268275,10.161718908268275,0.0,1.0
NaAlI4,mp-29395,62,-2.762882942916667,3.433300365834953,-0.9035031918055556,1078.72720814316,3.4482,8.395064999999999,15.169414999999999,3.0,-1.0
KGaI4,mp-29402,14,-2.58521097875,3.5095912826234614,-0.8794534938333335,1166.655895962564,2.6203000000000003,8.211444,16.64005544311764,3.0,-1.0
RbSnI3,mp-29405,62,-2.837277396,4.3489004771155235,-0.9248486415,893.3151807236862,2.0104,4.79079,17.63615,3.0,-1.0
AlTeI7,mp-29407,7,-2.336512915,3.6578007063632647,-0.38573901888888895,946.9064249104119,1.8899,7.4803039999999985,16.861058448244492,0.0,1.0
AlSeBr7,mp-29408,7,-2.692198589444444,3.0798045389459885,-0.6144238019270831,717.3871229128873,2.1777,6.821401,15.298684523145775,0.0,1.0
Na2B2S5,mp-29411,62,-4.7721709025,1.8759886358894475,-1.0662778681250005,807.0004569390053,2.5893,7.632281,12.660513,3.0,-1.0
Na3ScBr6,mp-29417,163,-3.6555825514999998,3.1339018769043854,-1.6457840520000002,628.7877530193726,3.3749,7.40389374804967,13.245034,3.0,-1.0
Zn4As2O9,mp-29437,14,-5.282218431333334,4.887863328574918,-1.7776717334166672,754.8377549596347,1.6613,8.359630000000001,10.599266632590957,3.0,-1.0
P4(SeO2)3,mp-29467,14,-5.97249444423077,2.500759320742855,-1.5405813141397666,1213.2104479149004,3.4478,8.894584,13.292655101329455,0.0,1.0
C2S7Cl6,mp-29477,2,-3.937494501666667,1.6204174049835371,-0.5849880797623338,945.2272187917256,2.8818,6.202286,13.426465346839207,0.0,1.0
MgInBr3,mp-29483,62,-3.0145776040000003,4.155465016565667,-1.162028924,605.5354236290153,2.0596,4.010462,15.658998,1.0,1.0
S2I2O11,mp-29492,14,-5.111870786500001,3.538569700954972,-1.3321157785000006,927.1474252501558,2.6356,9.320915,10.661384,1.0,1.0
WBr2,mp-29498,64,-5.9035638311111125,5.816491026869925,-0.4929039811111109,1177.2890421860554,2.4659,10.046939025097146,12.122425999999999,2.0,1.0
Cs3BiO3,mp-29505,198,-4.379092498928571,5.1677035321601785,-1.6200585228633002,842.7782924747376,3.1348,9.445779,9.445779,3.0,-1.0
Zn(AsO2)2,mp-29509,14,-5.641034232142857,4.241719484979401,-1.7037996185714286,437.2804037440854,3.5575,4.651061,18.368938491382565,2.0,1.0
GaTeI7,mp-29541,7,-2.1779729322222217,3.834836070781217,-0.3069190724999997,940.2077836404789,1.8822,7.435822,16.979286989852373,0.0,1.0
P2SeO3,mp-29543,14,-6.179585238958333,2.486761203785345,-1.6696719711644339,1009.1369742422087,3.2150000000000003,6.832561,12.366096185629196,0.0,1.0
Si(PH2)4,mp-29549,14,-4.203797568653847,1.100600915971155,-0.12715520274967018,965.8702748110452,3.9322,7.6201789999999985,11.401647182322387,0.0,1.0
MoBr2,mp-29555,64,-5.39663288,4.350222591615392,-0.6901341766666668,1171.4698351942075,2.1220000000000003,10.03231543982689,12.100075,2.0,1.0
RuS3Cl8,mp-29568,2,-3.3523734283333333,2.3319006362372607,-0.8753595058712502,684.8790714228013,1.8975,8.183145,11.213271518544977,0.0,1.0
Sb4S5Cl2,mp-29573,62,-4.111248850681818,3.6904083279232847,-0.8031891917859088,1292.7751619041353,1.8692,9.565204,12.05958,1.0,1.0
B5H8,mp-29611,33,-4.6992445656730775,0.7856920565347503,-0.13656363142641004,1050.2865936999451,5.4263,6.061127,15.183704999999998,0.0,1.0
Na4Sn3S8,mp-29626,15,-4.095418231,3.0932131863797667,-1.0906686732222215,756.5148786968106,1.6688999999999998,6.82065348603849,17.862133672944953,3.0,-1.0
KMnBr3,mp-29636,62,-4.227926516,3.6997340647108334,-1.1913495085310348,599.1805417278395,1.7858999999999998,4.0990519999999995,15.448213,3.0,-1.0
K4MnBr6,mp-29637,167,-3.632745515454545,3.048483159520232,-1.5032126519686522,752.5224905371448,2.3569999999999998,9.095818204122873,9.095818581730011,3.0,-1.0
B9H11,mp-29654,56,-4.962281656,0.9489488354674772,-0.17470019536599962,1517.2978363338416,2.9118,10.904469,12.47188,0.0,1.0
Ge3Cl8,mp-29688,219,-3.421000627272728,2.105639166157973,-1.2482832291890913,1582.1009012450104,3.2079,13.079256550871765,13.079256550871765,0.0,1.0
K2TeS3,mp-29692,14,-3.70794518875,2.472444511733595,-1.077433784645833,811.2923824258888,2.3442000000000003,6.487033,14.823377532445464,3.0,-1.0
Rb2AgCl3,mp-29693,62,-3.182614249166667,3.2942896479476205,-1.7567514027411113,776.5897291994428,2.9651,4.543757,18.211823000000006,3.0,-1.0
K4Sb2O3,mp-29696,186,-4.261216651111111,2.9027096723033754,-1.4349283539722224,512.4690114015399,1.2441000000000002,6.369703585531198,14.584734,3.0,-1.0
NbTeCl9,mp-29713,2,-3.653938265,2.508260042053468,-1.4240051049400002,714.4389075739807,2.1717,6.7048130000000015,11.821178280158115,1.0,1.0
TaTeBr9,mp-29716,11,-3.3966588781818183,3.663596224594141,-0.6936209309090909,931.6033352142218,2.2297,7.316396000000001,12.508734,0.0,1.0
B5H9,mp-29783,76,-4.615303121607143,0.7269417763217906,-0.14711820685095234,1153.588431761946,5.9612,10.382752,10.540694,0.0,1.0
KBiO3,mp-29799,201,-5.1334424855,5.534643536603829,-1.58595655285,1065.9705672091172,1.0911000000000002,10.215236,10.215236,3.0,-1.0
Ca3(AlN2)2,mp-29820,19,-6.337694382916666,3.0516018209411735,-1.302378821752222,1002.2165789291963,2.1935,5.856336,15.916668,3.0,-1.0
Ba(PN2)2,mp-2983,205,-7.417842751309522,4.599594788831356,-1.0527811365470745,1106.0221825264298,3.9118,10.341605,10.341605,3.0,-1.0
TaCl5,mp-29831,12,-4.861104356666667,2.9591069436719906,-1.8399322710500008,1206.093242431794,2.8237,6.465477536984412,13.66970662952384,0.0,1.0
Bi2(SeO3)3,mp-29833,14,-5.498311810535713,5.839666020177362,-1.464112362555804,908.6118177989563,3.3919,4.785175,15.571324550310035,3.0,-1.0
SnCl4,mp-29866,14,-3.216733692,2.0829766751450984,-1.4117385396079996,830.7475813259024,3.6854,7.268382000000001,10.887088288743367,0.0,1.0
Re2PCl13,mp-29878,11,-4.0363115421875,2.904883446522355,-1.1236613591219642,988.1052744981488,0.8085,9.185393,11.1719,0.0,1.0
CsPdCl3,mp-29882,72,-3.4390593234999995,3.330234707454555,-1.4716919010422067,689.4679654995357,1.6597,9.941139108184537,9.941139108184537,3.0,-1.0
SbClF10,mp-29940,57,-3.5006746327083333,2.973958697226036,-1.8683118364716669,775.44350024946,2.3509,5.999575,15.438804999999999,0.0,1.0
K3BS3,mp-29975,14,-4.242029966071429,1.9460814319012711,-1.3235216500059528,765.5597571981473,2.7673,6.27674,12.753914210300305,3.0,-1.0
Rb3BS3,mp-29977,14,-4.174508178214286,2.7637865008252644,-1.3116562369345246,873.3749957740581,2.6948000000000003,6.469618,13.240648541000853,3.0,-1.0
Cs6Cl4O,mp-29983,167,-3.293651087272727,3.51974847714306,-1.9633343956251093,901.3258620154694,1.9928,9.660444393201072,9.660444536636241,3.0,-1.0
CsPd2Cl5,mp-29988,62,-3.4404474546875,3.4939130403982532,-1.2498948452163794,994.276935434062,1.3551,5.5621769999999975,16.323295,3.0,-1.0
AuSO4,mp-30003,61,-5.389139816458332,4.897038149541343,-1.4342176028125,794.9072364460256,1.6517,8.53191,10.597808,2.0,1.0
Rb6Br4O,mp-30005,167,-3.129215602272727,3.2629071275943464,-1.6131632328409091,863.5478442865867,1.5390000000000001,9.523942748025368,9.52394280869919,3.0,-1.0
Rb2ZnI4,mp-30018,11,-2.47782957,3.7427906634209407,-1.1468492535714283,660.137781254095,3.1121,7.93803,10.53940515450227,3.0,-1.0
Si3CCl7,mp-30051,15,-4.463115287272728,1.7571997978459295,-1.3467807784381824,1301.9648370788914,4.0058,9.367334678103106,18.166190335528913,0.0,1.0
GeCl4,mp-30086,14,-3.33251898,1.8399246047245448,-1.4048326276079997,774.1750352076317,4.2671,7.028178,10.674458920179186,0.0,1.0
Be2Te7Cl6,mp-30096,58,-3.3804838436666667,3.883058633947352,-0.913481303637333,961.2784044579338,1.34,5.531187,16.820929,2.0,1.0
Be4N6O19,mp-30142,143,-6.407322033793104,1.8509764853691013,-1.4645589823458622,1141.3391386828966,3.5725,6.733461,13.990165862162248,0.0,1.0
Cs3BS3,mp-30222,14,-4.147458047857144,3.39743543482662,-1.321091121047825,988.7125093056396,2.5301,6.743239,13.842887695467049,3.0,-1.0
Sr3(BS3)2,mp-30239,15,-5.326388915,3.0210799519526885,-1.7568283238257572,524.226169688657,2.383,6.138365634702775,15.601567210856256,3.0,-1.0
Li4GeS4,mp-30249,62,-4.2612218322222235,2.2156652963874914,-1.3555908556481482,685.4925348952466,2.4872,6.194939,14.161107999999999,3.0,-1.0
In2(Se2O5)3,mp-30325,7,-5.322018696521738,4.127076036270727,-1.4018526809918477,1518.2962025949093,3.4656,10.063381,13.591510999999999,3.0,-1.0
Tl3PbCl5,mp-30519,76,-3.2861640766666667,5.872666641366539,-1.3898461995888889,1128.3313806395622,3.2826000000000004,8.648677000000001,15.084722,3.0,-1.0
Tl2S5,mp-30520,19,-3.7720392964285714,4.6179635409957225,-0.6165742543749998,818.5416154845952,1.6980000000000004,6.859889999999999,17.077648999999994,3.0,-1.0
RbCr3O8,mp-30547,12,-6.7845323933333335,3.024406461925752,-1.9623657072916671,405.6917114675954,1.9312,5.256453241872984,16.454456216552707,3.0,-1.0
TlGeS2,mp-3075,62,-4.2064164975,4.992839790237572,-0.7237513553125003,907.6972723333536,1.7633,6.743376,14.531274,1.0,1.0
V2Te2O9,mp-30901,14,-6.493102293461537,4.536953344018432,-1.9314558920192308,733.5838542798009,2.2329,7.364338,10.254484172803863,3.0,-1.0
Ba3(BN2)2,mp-30905,19,-6.846706224166668,4.5429044653226605,-1.1883079150392588,715.8851059077225,2.5259,4.299930000000002,14.913464000000001,3.0,-1.0
AlI3,mp-30930,14,-2.75032973625,3.204476225941659,-0.6709263174999998,845.0596499049881,3.2679,6.74074,12.944380744005485,0.0,1.0
Na4SiSe4,mp-30931,62,-3.7023756180555565,2.9823007798685524,-0.961534640578704,970.7986179289168,2.1323,7.215669,14.445857,3.0,-1.0
As(S8I)3,mp-30934,160,-3.899739545,2.0419001145175737,-0.5932069358928577,996.3681199895772,2.5848,15.1556900204091,15.15569100951382,0.0,1.0
HgClO3,mp-30937,14,-3.450446762,4.831028274839968,-0.5915412124020001,781.0536097755594,3.0919,6.499923,15.497494852772979,0.0,1.0
Cd2(TeO3)3,mp-30941,14,-5.052385864107143,6.248035907509527,-1.5176236120535715,799.0278838858687,1.9309,7.424326,13.46198721049998,3.0,-1.0
Na3FeO3,mp-30947,14,-4.973146611071429,2.9045491703762685,-1.7705814773214286,395.18961963830594,2.0753,5.815452,12.760136,3.0,-1.0
GaBr3,mp-30953,14,-2.821770058125,3.0904309456897403,-0.8370512775000001,665.057935418378,3.3614,6.236905999999999,11.803040907382176,0.0,1.0
GaI3,mp-30954,14,-2.399875503125,3.645220843495403,-0.4998421662500001,820.7648183058546,2.3854,6.693523,12.711648366309069,0.0,1.0
Ca(BS2)2,mp-30958,205,-5.439497292261906,2.6588793747457453,-1.2600197366666668,1423.6193070842085,3.0095,11.24945,11.24945,3.0,-1.0
B5H6Br,mp-30977,14,-4.753374307291667,1.55598740647625,-0.2140155270877777,1195.312992049982,3.015,7.5914850000000005,13.778008382837667,0.0,1.0
KAl2Br7,mp-30978,14,-3.3029201137500004,2.783257740655015,-1.2969164750500002,1556.9065439415524,4.128,11.096346,14.899449706314025,3.0,-1.0
GaPS4,mp-30979,14,-4.58026437,2.343968520386957,-0.8580408980952381,648.7999212557239,2.3828,8.206917,12.083895877720401,2.0,1.0
Sn(NO3)4,mp-30989,14,-6.1531211432352935,2.3862020070219896,-1.0491537179129409,1020.8168895785852,3.6519999999999997,8.070139999999999,14.300385,0.0,1.0
Fe2Te4O11,mp-30995,14,-5.7810757075,5.203030301568632,-1.6193386700735293,1018.8283267967224,1.5126000000000004,7.05523,14.374320616260722,3.0,-1.0
Ti(NO3)4,mp-30998,14,-6.662025261764708,1.9879800405226784,-1.3294742975207845,988.604007219845,2.83,8.01883,14.043377,0.0,1.0
KSb3O5,mp-31001,14,-5.708353070555559,4.483038469603686,-1.8499386249166667,717.6597872176633,3.1105,7.1626460000000005,14.220581,3.0,-1.0
Sn(SO2)2,mp-31004,14,-5.664938022142858,2.9351263217265227,-1.6737646701785718,558.5905790448968,2.6914,7.4196490000000015,11.2323375424773,0.0,1.0
ZrP2S7,mp-31014,70,-5.450215795499999,2.3892934042439835,-1.0816956534017863,1049.789188004354,1.7043,8.859479952100573,16.927538102279993,3.0,-1.0
AsI5F6,mp-31020,15,-3.196569553333333,3.8350169803247236,-1.463029363095,713.0841640872992,1.4406,8.90488892642783,10.756185748567658,0.0,1.0
Rb4(BS)9,mp-31060,2,-5.368181424090909,2.3491041499461414,-1.0366554682102271,1028.8738713853986,3.1228,10.181602999999999,10.807493497836909,3.0,-1.0
As8S9,mp-31070,13,-4.512489710882353,2.860732679237929,-0.4813217084191183,1030.846836611786,1.722,9.640533,10.643444178907737,0.0,1.0
Tl2TeBr6,mp-31076,128,-2.592956645555556,5.181752903858785,-0.6276048533333333,651.0383671629519,2.2372,7.6259929999999985,11.194734,0.0,1.0
K3FeO2,mp-31218,92,-4.2374565720833335,2.426070905660519,-1.3108681290000002,561.6337504839662,1.2538999999999998,6.1923166740207165,14.646844042295154,3.0,-1.0
Bi(IO3)3,mp-31259,14,-4.6077255851923065,5.756386393742588,-1.0174900949038457,846.5854681617598,2.8849,6.114178,17.019398504001984,3.0,-1.0
YPS4,mp-31266,142,-5.767972140416667,2.944855033098897,-1.4726860667063502,1119.3638126583558,2.1418,12.249942172091751,12.249942172091751,3.0,-1.0
K3PSe4,mp-31313,62,-3.7114829121875,2.9647163066066815,-0.8704668355558036,1039.7899626093256,1.6858999999999995,9.537797,11.047164,3.0,-1.0