pretty_formula,task_id,spacegroup.number,final_energy_per_atom,density,formation_energy_per_atom,volume,band_gap,min_abc,max_abc,Dimension,Dim
Rb2Sn2Se5,mp-9322,15,-3.779478571666667,4.4079730302521085,-0.7283931001909723,605.117699770629,1.291,7.359426239064088,12.27022019163067,3.0,-1.0
Nb3SnS6,mp-9407,193,-6.9411234365,4.525884884911784,-1.4259808188750007,432.80717433338106,0.0,5.846139346947267,14.622629000000002,3.0,-1.0
Ba6Ni25S27,mp-9415,221,-5.315730245862069,5.146534958551611,-1.0090411357650857,1018.6286935789187,0.0,10.061714,10.061714,3.0,-1.0
AuF3,mp-942,178,-3.226190235,6.203961699415571,-1.3423072496425,407.8491859434718,1.5542999999999998,5.323642681861829,16.616946,1.0,1.0
YTe3,mp-945077,63,-4.907221825,6.368255470249609,-0.9331283491666662,245.99703813014838,0.0,4.347122,13.199408848009256,2.0,1.0
Y4C5,mp-9459,55,-8.325325628888889,4.729248327893117,-0.3253491896296292,291.90589441543966,0.0,3.683412,11.995858,3.0,-1.0
CsTeSe3,mp-9462,14,-3.3747519724999995,4.5413288011754505,-0.4694644254924565,727.4769215782544,0.8689,6.8672509999999996,13.816372109951658,3.0,-1.0
Tl2PAuS4,mp-9510,11,-4.10027163125,5.870987142438443,-0.6874675276339293,432.7236434910741,1.2994000000000003,6.625653999999999,9.552453748212443,1.0,1.0
K2AsAuS4,mp-9511,11,-3.971144521875,3.418493806575201,-0.9654248585625004,464.7135382842935,1.0511,6.808541,9.715658717152479,3.0,-1.0
NaSnSb,mp-952566,186,-3.386480395,4.445979474566436,-0.235405291111111,196.80038644781425,0.0,4.37039243604702,11.897466,3.0,-1.0
Y4C7,mp-9530,14,-8.500664407272728,4.5396135894412,-0.2776326478787881,321.6732835437133,0.0,3.722636,13.773828,3.0,-1.0
KSbSe2,mp-9576,13,-3.757836468125,3.8512447739126223,-0.7000306825468745,549.7898490586509,1.5589000000000002,6.595472,13.53459755943327,3.0,-1.0
NbSnS2,mp-9586,194,-6.4533383325,5.335198794472767,-1.189124175312501,171.64782573346568,0.0,3.3574302845517137,17.583029,3.0,-1.0
Cs3BP2,mp-9675,15,-3.752912115,3.426478642538325,-0.3875503466837713,456.97203358746947,1.6960000000000002,7.000975583027412,9.914985891671758,3.0,-1.0
Cs6GaSb3,mp-9697,11,-2.4784205084999997,4.340095786718053,-0.3996691630086208,943.0702668432193,0.4379,6.588324000000001,13.002684325339672,3.0,-1.0
Rb6AlSb3,mp-9698,11,-2.589771303,3.5313793237759388,-0.3881929045000001,851.1695835501889,0.2825,6.332325,12.541579591454699,3.0,-1.0
K2LiGaAs2,mp-9703,64,-3.328342780416667,3.287474868282158,-0.5823339348888888,615.6367229123363,0.7546000000000002,6.285279,10.007765453220463,3.0,-1.0
Si,mp-971662,223,-5.3614114763043474,2.005388219199656,0.06390254369565224,1069.770529910624,1.3167,10.227360000000001,10.227360000000001,3.0,-1.0
BiS2,mp-971673,12,-4.310761945833334,6.022076048085303,-0.6987572645833335,301.2319904787284,1.1894,8.240615288324168,11.627245865731444,2.0,1.0
Sr(GaAs)2,mp-972120,10,-4.0608023045,5.010324914767039,-0.6480204908333335,499.6661588283868,0.7366000000000001,4.098191,12.64997187574854,3.0,-1.0
Na2LiGaAs2,mp-9722,64,-3.3752186391666665,3.5474364851887263,-0.5611253704166668,510.19926800491095,0.6841999999999997,5.922189,9.335211945172107,3.0,-1.0
SbSI,mp-973217,62,-3.573455406666667,4.345834644846431,-0.5314541660416671,429.0657976448485,1.5291999999999994,4.132573000000002,10.854124,1.0,1.0
MgIn5,mp-973372,187,-2.56022568,6.188910407661156,-0.0004425633333333679,160.5546387499927,0.0,3.3611139055897823,16.410649,3.0,-1.0
RbZn4As3,mp-975144,123,-2.7901089625,5.1143129822138205,-0.2905009965625003,185.6769725600159,0.9092000000000002,4.201231,10.519738,3.0,-1.0
RbCr5Te8,mp-975531,12,-5.635037312142857,5.839492377993497,-0.321310250535714,388.511283168313,0.0,9.660884479784084,10.4457963750918,3.0,-1.0
Rb2NbAgSe4,mp-9764,70,-4.541220014375,4.141827493418777,-0.931398127005208,551.3044355188575,1.7764,7.815120869209957,14.38913373721893,3.0,-1.0
Ni9S8,mp-976920,21,-5.381357616470589,5.417513337502196,-0.6869370838235302,481.0788836301329,0.0,7.235048267726348,9.354974,3.0,-1.0
PW4Cl11,mp-977371,63,-5.629296811875,4.6670763690221335,-1.1894122815269652,822.8316851252738,0.5707,8.704364987860746,11.523839,2.0,1.0
Sr2Sn,mp-978,62,-3.0821254775,4.212174374868093,-0.6192806902777779,463.5282542331649,0.15280000000000005,5.4255379999999995,10.1745,3.0,-1.0
RbHfAgTe3,mp-9780,11,-4.637708288333333,6.227956555955068,-0.7710113356944449,402.4067741686194,0.3193999999999999,4.246102,11.072397186246977,3.0,-1.0
SiAs2,mp-978553,55,-4.98559658625,4.061515016821064,-0.07107964291666669,581.9652148436082,0.8964000000000003,3.693517,15.222156,2.0,1.0
Tl2(IO3)3,mp-978990,2,-4.342596339642856,6.084520060966665,-0.9492868379464282,509.51300745253343,1.9691,7.2188149999999975,10.70029334487901,1.0,1.0
Te6RhCl3,mp-979264,167,-3.5709648769999998,5.233299852562623,-0.5723982389780001,618.6538637180466,1.1951,9.111525093615995,9.111525233102581,1.0,1.0
Rb2GeSe3,mp-9794,12,-3.719891795,3.608259060592464,-0.8745867228385412,442.21619355443084,1.5485,8.039716405704679,10.369725737632072,3.0,-1.0
K(SbSe2)2,mp-9797,2,-3.827402602857143,4.5227391395426215,-0.4913958403392854,439.45200296540685,1.1431,6.935113,9.469149414316474,3.0,-1.0
Rb(SbSe2)2,mp-9798,2,-3.8147868971428567,4.7317680997057145,-0.4973322595535714,452.58420555154663,1.1239999999999997,6.89393,9.707808487036713,3.0,-1.0
Ti3Si,mp-980420,86,-7.7735446409375,4.355363316245566,-0.4955971234375003,523.6617379669303,0.0,5.077724,10.155256,3.0,-1.0
TaTl(CuS2)2,mp-9815,40,-5.516761019375,5.3915874215011685,-0.978035592187501,394.6442361152723,1.8723000000000003,7.516307,9.818072301267142,2.0,1.0
NaAsSe2,mp-984519,7,-3.790664151875,3.90979854012152,-0.5492657576302085,869.2375912299713,1.1886,6.0675040000000005,12.134277971979088,3.0,-1.0
AgAsS,mp-984714,62,-3.953278104166667,4.876732488134934,-0.29839001243055624,292.6342914355552,0.25319999999999965,3.968971,12.120339,3.0,-1.0
Cr(GaS2)2,mp-985304,164,-5.212218264285714,3.7035898773490974,-0.9834757010714292,143.3414185439031,0.0,3.7001281340138745,12.089478,2.0,1.0
AgAsSe,mp-985442,62,-3.7312667999999998,5.4594975231247815,-0.06873817133680582,318.4511151319025,0.0,4.056373000000002,12.528663,3.0,-1.0
Ba3Ge4,mp-9858,65,-4.033998381071429,5.164642128842316,-0.5698521082142862,903.5257408239663,0.0,8.583012561024075,12.271842999999999,3.0,-1.0
Ba2Si3Ag,mp-9867,70,-4.261329799166666,4.776502639573698,-0.4369231786111112,649.0977397436877,0.06170000000000009,8.67036513108237,12.487004050981165,3.0,-1.0
Sr3N2,mp-986716,206,-4.854448859,4.100238627116327,-0.6597712319519999,942.3971394064232,0.34830000000000005,10.697573604094856,10.697573604094856,3.0,-1.0
Ag2WS4,mp-990091,62,-5.235886716071429,5.014355634701696,-0.5908584383333338,699.1869159879776,0.8692999999999997,7.3843320000000015,12.05865,3.0,-1.0
Sc3Co2Si3,mp-9901,63,-7.021812620625,4.4823730874182415,-0.8355645000000003,249.68296419667297,0.0,5.341305150277224,12.802442,3.0,-1.0
Ba2Si,mp-9905,62,-3.4015083958333334,4.27860847877865,-0.3137565024999998,469.9759459145017,0.05530000000000035,5.418835,10.174347000000001,3.0,-1.0
Ba5Sb3,mp-9909,193,-3.73373732875,4.963918134195072,-0.9860050950000004,703.7770990660323,0.0,7.910811,10.135419828505428,3.0,-1.0
K2Pd3S4,mp-9910,70,-4.526806985555557,3.960402213673892,-1.009873342055556,440.8506536260652,1.2112000000000005,6.258569416186577,14.173204421453214,3.0,-1.0
SiC,mp-9947,160,-7.521629258571429,3.1713856995691136,-0.195581898571429,146.9607262587997,2.1419,17.799814588296414,17.79981498803771,3.0,-1.0
AlCr2C,mp-9956,194,-8.2428925,5.338343764116955,-0.1732796324999999,88.953149779197,0.0,2.843004271013324,12.707956,3.0,-1.0
Ti2GeC,mp-9958,194,-8.21959897625,5.564792021987908,-0.8094008291666661,107.65392136251587,0.0,3.0863598569116983,13.049866999999999,3.0,-1.0
Ti2CdC,mp-9961,194,-7.02204057625,6.02072649069647,-0.5368769529166668,121.43954426416072,0.0,3.1051121094691574,14.543701,3.0,-1.0
Nb2AlC,mp-996162,194,-8.7992561275,6.313226319595051,-0.505514475,118.25886278894009,0.0,3.134416968191852,13.899194,3.0,-1.0
SnS2,mp-9984,186,-4.46817588,3.841032282604105,-0.8163253504166667,158.08925340835899,1.4909999999999997,3.7008418377134142,13.328173999999999,2.0,1.0
CsSeBr3,mp-998413,11,-2.658826262,3.509476662930696,-0.7984075680549569,427.3355103888549,1.205,6.046608999999999,9.321875,3.0,-1.0
SiP2,mp-9996,55,-5.5424217350000005,2.110661776567977,-0.12512648738095322,566.6596336594829,1.4852000000000003,3.448904,15.964942,2.0,1.0
Zn(CoO2)2,mvc-10051,156,-5.582244703095238,5.481105402351451,-1.4806674066666667,449.4784499132274,0.0,5.9541037222011015,14.640147,3.0,-1.0
MgCu2(TeO4)2,mvc-10170,14,-5.339182917307691,4.8179197547137385,-1.4891353019230766,737.0079021603668,0.13249999999999984,6.288361063757789,13.397497891679366,3.0,-1.0
Zn(CoO2)2,mvc-10213,156,-5.556189858571429,5.45842658072653,-1.4546125621428572,451.34595540021536,0.0,5.9530620672868855,14.70612,3.0,-1.0
CrCuO4,mvc-10471,14,-6.118938810833334,3.677409396769275,-1.3319528083333338,648.5711079491197,0.0,6.463225,11.743403020077698,3.0,-1.0
Ca11(FeN5)2,mvc-11164,8,-6.015776612173914,2.7726182242806656,-0.8624580766869572,414.8116230143973,0.2898000000000001,6.194332358188249,12.252685273731835,3.0,-1.0
Ca11(MnN5)2,mvc-13041,8,-6.136822801304349,2.725572263947317,-0.9233561275265372,420.8665506206645,0.03520000000000012,6.21526985988364,12.294815103492851,3.0,-1.0
ZnCu4(SnSe4)2,mvc-14983,5,-3.873921176,5.336896716999331,-0.2977207879166665,369.8537313653997,0.0,6.965083824647124,11.402759357464756,3.0,-1.0
Zn3Cu10(TeO6)6,mvc-15145,1,-5.0587437180000006,5.5184499457441065,-1.1228335364545454,653.9503183449581,0.0,8.463224926434663,10.473383891397614,3.0,-1.0
Sb2S5,mvc-15221,14,-4.088553705357144,2.8605711712190534,-0.42813201758928543,937.7153850925454,0.0,7.8224339999999986,13.720180422589927,2.0,1.0
Zn2Ni9O13,mvc-2294,12,-4.7756445725,6.248313036224062,-1.0148792210937494,230.42567134198129,0.0,5.0957701073531565,16.419919181636214,3.0,-1.0
Mg2Ni9O13,mvc-2315,12,-5.016481527083333,5.705261572194742,-1.227338139010417,228.43161773534283,0.0,5.101935662497618,16.196770461597584,3.0,-1.0
Ca2Ni9O13,mvc-2381,12,-5.114979909583333,5.590843725436323,-1.2920598690104168,242.47601301517258,0.0,5.149184435306722,16.552386167046066,3.0,-1.0
Bi5(TeO6)3,mvc-2839,5,-5.470155428846153,6.5825500847863605,-1.420076475865385,865.6135470678455,0.04659999999999975,9.281194169633398,11.729639520593162,3.0,-1.0
Zn4Ni5(TeO6)3,mvc-3072,15,-5.078196508,5.954614705038912,-1.4458118724166666,683.7190953153091,1.2352000000000003,8.648517703274361,10.400959332494,3.0,-1.0
Mg(CuO2)2,mvc-5152,8,-5.239594157142856,4.864946994993241,-1.4136862621428572,441.1203021156582,0.0,5.909233080721897,14.506153150721971,3.0,-1.0
Zn(CuO2)2,mvc-5176,8,-4.817433373333333,5.780047964846183,-1.0401735411904762,442.1339910173648,0.0,5.925360046235925,14.509735050862265,3.0,-1.0
Zn3Cu3(AsO4)4,mvc-6023,14,-5.4780796325,4.819218501622059,-1.530234557115385,649.535803482117,0.5785,5.127708999999999,15.667912598850336,3.0,-1.0
Mg(Ni2O3)2,mvc-843,63,-5.041765296818182,5.604127083187286,-1.2655089711363623,210.42203373363103,0.0,5.082507715673632,14.77806,3.0,-1.0
Zn(Ni2O3)2,mvc-876,63,-4.765501428636363,6.213991363198336,-1.0202029611363634,211.73853274489133,0.0,5.09046751917071,14.899220000000001,3.0,-1.0
Ca(Ni2O3)2,mvc-882,63,-5.151317636818182,5.50785995622283,-1.3382140538636365,223.61047545325906,0.0,5.128965942619819,15.090599,3.0,-1.0
CaAgBiO5,mvc-9055,14,-5.2645632921875,5.205162973007673,-1.5199986000520829,557.5454299370635,1.0192,5.884743,11.072196,3.0,-1.0
ZnAgBiO5,mvc-9059,14,-4.6754692309375,6.410715148102351,-1.0241365725520826,478.9430222884089,0.34829999999999983,5.4742440000000006,10.662192,3.0,-1.0
Zn(CuO2)2,mvc-9491,156,-4.842745940952381,5.739611737485928,-1.0654861088095238,445.24887603087717,0.0,5.947487654150952,17.814123908009954,3.0,-1.0
Zn(CuO2)2,mvc-9725,156,-4.843452778809524,5.815666725011742,-1.0661929466666666,439.4260874644738,0.0,5.9196015233113455,17.738114932070342,3.0,-1.0
Mg(CuO2)2,mvc-9739,156,-5.24710728452381,4.859364967164923,-1.4211993895238093,441.6270238413743,0.0,5.9442558800352785,17.729512037951018,3.0,-1.0