pretty_formula,task_id,spacegroup.number,final_energy_per_atom,density,formation_energy_per_atom,volume,band_gap,min_abc,max_abc,Dimension,Dim
YP5,mp-9854,11,-6.128328359166668,3.297736928865286,-0.5395116224206357,245.50008391143467,0.18799999999999967,4.958787999999998,9.438153999999999,3.0,-1.0
Al2Cu,mp-985806,225,-4.041519006666666,4.064939116866759,-0.17806622999999944,48.00278866688653,0.0,4.079376802411123,4.079376802411123,3.0,-1.0
Al3Cu,mp-985825,123,-3.9239673625,4.022425562214353,-0.08998382249999981,59.648664364818714,0.0,2.826175,7.467971,3.0,-1.0
K4BeP2,mp-9872,166,-3.0878218571428566,1.6496087293113892,-0.3724532320204084,228.8593504689033,1.2316,9.028120866878167,9.028121044387033,3.0,-1.0
YB2C,mp-9880,135,-7.787143781875,4.692792429573658,-0.5241349431249995,346.88097117988855,0.0,6.8021970000000005,7.496906,3.0,-1.0
KFeSe2,mp-9884,15,-4.79641900625,3.770900773265081,-0.6533628106718751,222.6997809840694,0.0,5.6190292388423275,6.908534225074448,3.0,-1.0
Ca6Al2NF,mp-989399,225,-3.896154003,2.2720202312357385,-1.0063766768570002,239.31149991422336,0.0,6.968824413946588,6.968824413946588,3.0,-1.0
Rb2SBrCl6,mp-989518,225,-2.677713685,2.7061836862259656,-1.2183046437685003,304.11856141872573,0.0,7.548360646525707,7.548360646525707,3.0,-1.0
Rb2AlInH6,mp-989528,225,-2.942343803,3.280131108385728,-0.1526690356719996,161.38112780653802,0.5159000000000002,6.111144900560615,6.111144900560615,3.0,-1.0
Cs2AlInH6,mp-989535,225,-2.9342657969999997,3.9718452691834174,-0.16161736975820667,172.94112924526445,0.8879999999999999,6.253710355569884,6.253710355569884,3.0,-1.0
Rb2AlTlH6,mp-989539,225,-2.935535127,4.13781086988407,-0.18486343467199973,163.8735936969843,1.0396,6.142445689336617,6.142445689336617,3.0,-1.0
Cs2TlSiH6,mp-989560,225,-3.0278730460000003,4.627632632530177,-0.12625387475820665,180.96839642100701,0.0,6.3490085506839575,6.3490085506839575,3.0,-1.0
Cs2AlTlH6,mp-989575,225,-2.9292551430000002,4.713864274601881,-0.1956097907582066,177.26901688792574,1.3568000000000002,6.30544794453574,6.30544794453574,3.0,-1.0
K2SBrCl6,mp-989587,225,-2.664265544,2.2552313806069115,-1.1788835278685001,296.6453743262521,0.0,7.486017870055615,7.486017870055615,3.0,-1.0
K2BrCl6F,mp-989591,225,-2.42778151,2.4953204573663528,-1.1476434671750002,259.4081095787298,1.2492,7.158678342054489,7.158678342054489,3.0,-1.0
Cs2NaGaH6,mp-989594,225,-2.75839723,3.7927041793223037,-0.2011999868415401,159.61827743685834,1.1469,6.088811639983617,6.088811639983617,3.0,-1.0
Cs2NaInH6,mp-989610,225,-2.709828803,3.824622593619811,-0.18027273709153988,177.86510969059785,1.3021999999999998,6.312507698639108,6.312507698639108,3.0,-1.0
TiPN3,mp-989613,38,-8.454823264,3.0871066875569184,-1.021584375808952,65.01044611865268,0.5323999999999995,2.83485,5.054459861413582,3.0,-1.0
SrTcN3,mp-989627,15,-7.766867727499997,4.410094905315863,-0.5853641822613327,342.85455282977125,1.5638,6.180542600390358,7.600320060438639,3.0,-1.0
CaTcN3,mp-989634,15,-7.833067940499999,3.7642920657590198,-0.5883406699279987,317.7861076091947,1.5504,6.239396578432005,7.398940413721412,3.0,-1.0
CaMoN3,mp-989635,12,-8.148879462,4.111138118441509,-0.8071475674279981,143.82354076944085,0.9059999999999996,6.424679127894403,6.514780193341676,3.0,-1.0
CaTcN3,mp-989638,12,-7.845181687999999,4.244448506109882,-0.6004544174279985,140.9181571834064,0.6383999999999999,6.4481800035378205,6.475955848480285,3.0,-1.0
Cs2AlGaH6,mp-989648,225,-2.9492350480000002,3.757837173930505,-0.14894544350820665,162.86320255637375,1.0708,6.129795549021193,6.129795549021193,3.0,-1.0
CaMoN3,mp-989649,10,-8.110594424,3.7515007974899066,-0.7688625294279987,157.61117288901912,0.0,3.581524,10.178184708230292,3.0,-1.0
Ag2GeS3,mp-9900,36,-4.002328479166667,4.608983790376646,-0.5511435687847221,277.1091688065447,0.468,6.54533,6.95629563526889,3.0,-1.0
C,mp-990448,191,-9.21952875,0.7559985807980227,0.007251950000000562,52.76262964980629,9.9999999999989e-05,2.468416031949436,9.999058,2.0,1.0
LiGe,mp-9918,88,-3.54677611125,3.762761663980553,-0.2808007504166663,280.95823495618043,0.0,7.546338367377253,7.546338367377253,3.0,-1.0
CaGa2,mp-992,191,-3.170237793333333,4.2458961071270815,-0.4829741649999999,70.21052985538252,0.0,4.298423670705343,4.3878639999999995,3.0,-1.0
VP2,mp-9923,12,-7.248174643333333,4.5571322440882245,-0.611348712380952,82.26956098784473,0.0,4.504211849222125,7.173351273039472,3.0,-1.0
Ca2Sb,mp-9925,139,-3.5943918683333336,3.4882467069202248,-0.8809915349999997,192.23950273152144,0.0,9.032729790120149,9.032729790120149,3.0,-1.0
BaMgSi,mp-9934,129,-3.368031545,3.6685705774704815,-0.38650991166666654,171.7471771170908,0.0,4.658983,7.9123839999999985,3.0,-1.0
Si3H,mp-995193,164,-4.88155297125,1.939858891153836,-0.002633290904999973,145.97446675882333,0.9321000000000002,3.861817073229648,11.302199,2.0,1.0
HC6,mp-995202,2,-8.35463832857143,1.8498845407708675,0.016850365911429726,131.18563940158248,0.0,2.46457,14.296846474583548,1.0,1.0
ScSi,mp-9969,63,-6.71552542,3.336115770038882,-0.8366338574999999,72.71217575534702,0.0,3.667931,5.341834206328197,3.0,-1.0
AgNO2,mp-996960,5,-5.42361380125,3.945509421071105,-0.604524019136667,129.52106453362518,1.4771,4.621954126186239,7.561141357368872,1.0,1.0
CuBrO2,mp-996993,12,-4.1197699425,4.728467977218997,-0.5629039056249994,61.61394937889346,0.0,3.774704069457101,6.0504202741437725,2.0,1.0
AgO2F,mp-997028,20,-4.10162862875,4.20640771062423,-0.6373643600891667,125.4287394341108,0.5231,4.4086,5.3558862031425765,2.0,1.0
CuO2F,mp-997035,20,-4.65758636625,3.6348168681044473,-0.8766594309225004,104.65642183854669,0.8182999999999999,3.958103,5.215298111750851,2.0,1.0
AgO2F,mp-997101,12,-4.11371274625,4.303992067548637,-0.6494484775891665,122.58489523425665,0.0,4.8094713288977005,6.919597928072195,2.0,1.0
C,mp-997182,194,-9.2190248725,1.008380923121407,0.007755827500000478,79.11389876546238,0.00010000000000001674,2.4680316454899844,14.997562,2.0,1.0
Al2Cu,mp-998,140,-4.028987475,4.382044573416035,-0.16553469833333287,89.0581599988621,0.0,4.928166868043938,4.928166868043938,3.0,-1.0
RbSeBr3,mp-998299,11,-2.6528402410000003,3.4208793248548437,-0.7753952069687504,392.3493713397133,1.3016,5.717407,9.228333000000001,3.0,-1.0
RbSeBr3,mp-998366,99,-2.64347529,3.987060358282739,-0.7660302559687502,168.31697189479087,0.0,5.517727,5.523112,3.0,-1.0
KAgBr3,mp-998568,99,-2.630783814,4.037557120362439,-0.8600368999333334,159.03050689389357,0.0,5.417086,5.418229,3.0,-1.0
Al,mp-998860,229,-3.65313185,2.6827233788539964,0.09244398000000008,16.7009015075625,0.0,2.7890348128877847,2.7890348128877847,3.0,-1.0
Br,mp-998864,71,-1.55302833,3.423121443241446,0.08389820999999986,38.76103018184613,0.0,4.538248320136527,4.538248320136527,1.0,1.0
KO3,mp-998913,44,-4.6486416925,1.8491200223506048,-0.6600753541874997,78.2140364421973,0.8937,4.819191483959316,4.819191483959316,3.0,-1.0
K2O,mp-998914,12,-3.3672947516666665,2.011803963483164,-1.211806964083333,155.4983892631769,0.8692,4.270144133642447,10.17037691031724,2.0,1.0
K2O,mp-998915,58,-3.378890503333333,1.9626819452056927,-1.2234027157499998,159.39020410264268,1.0848,4.236669,6.326059,3.0,-1.0
KO2,mp-998916,205,-4.5029627375,1.9778611526843288,-0.931512776,238.76198167245042,0.0,6.203761,6.203761,3.0,-1.0
TiAl3,mp-998981,221,-5.1560990425,3.4030829499101243,-0.3730441658333339,62.8538073905659,0.0,3.975977,3.975977,3.0,-1.0
ScAl3,mp-999204,139,-4.75404473,2.9166302973646685,-0.3617455812500001,71.67954920661654,0.0,5.259976262158035,5.259976262158035,3.0,-1.0
MnSe,mp-999540,186,-6.68616678,4.24687136316545,-0.3573578059994613,104.70905080493851,0.0,4.204585750241395,6.839229,3.0,-1.0
NiS2,mvc-1,227,-4.897086753333333,3.845087901392924,-0.6550479487500004,212.16997813626503,0.04940000000000033,6.694728612355247,6.694728612355247,3.0,-1.0
CoS2,mvc-11244,227,-5.3858390325000025,4.051943093970883,-0.7010731895833343,201.7316020673436,0.0,6.5830877653143896,6.5830877653143896,3.0,-1.0
NiS2,mvc-11598,166,-4.906191296666667,2.9713796264774164,-0.6641524920833332,68.63917763157905,0.6078000000000001,7.349769462262949,7.349770138316432,2.0,1.0
Ca3(FeN2)2,mvc-11768,44,-6.83798812,3.2521365672896625,-0.7527998810577772,147.02751337937124,0.0,6.387160765542152,6.387160765542152,3.0,-1.0
Mg(MnS2)2,mvc-12966,227,-5.955126418571429,3.18174734988502,-1.1243189245443364,273.93355581286806,0.0,7.289874934235841,7.289874934235841,3.0,-1.0
Mg2NiN2,mvc-13438,12,-5.513708188,3.7249771823463527,-0.5365799569519993,120.64440761259199,0.0,5.5402406151018395,6.471453325222857,3.0,-1.0
CrS2,mvc-13555,166,-6.45670545,3.0827036534626577,-0.9236963820833342,62.55285858739589,0.0,7.892469282239367,7.892469696588577,2.0,1.0
MnS2,mvc-14047,166,-6.365825526666666,2.7683818321996165,-0.9965967919683908,71.41975070291899,0.0,7.591476556150391,7.59147669305676,2.0,1.0
Ca5(MnN3)2,mvc-14086,6,-6.778557996923077,3.1055442978001158,-0.927308345660795,210.8361485021881,0.0,4.963433,6.848755461641552,3.0,-1.0
Ca2MnN2,mvc-14557,12,-6.701235995,3.469423132309705,-0.8856658738830347,156.13332484786878,0.0,6.007649321436298,6.647595988036126,3.0,-1.0
Mg2MnN2,mvc-14629,12,-6.324972573999999,3.639229681280636,-0.6715303848830345,120.0599787392208,0.0,5.457030854183345,6.183450300852188,3.0,-1.0
CrS2,mvc-15,166,-6.480318554166666,3.638624562521816,-0.9473094862500004,211.9833166500173,0.0,6.5633534354067065,6.563353616398404,3.0,-1.0
Ca2CoN2,mvc-15272,12,-6.199617223,3.6530622356466647,-0.7947248369519997,151.91659447795763,0.0,5.937470530060088,6.711166103904892,3.0,-1.0
Ca2CrN2,mvc-15308,12,-6.843016702000001,3.3646287695405848,-0.9291783809519998,158.09237100938014,0.0,6.022445758203224,6.65738516052609,3.0,-1.0
Ca2NiN2,mvc-15358,12,-5.8924512270000005,3.61380829578517,-0.7531950639519998,153.34637340083972,0.0,5.940627657986656,6.7562951398739965,3.0,-1.0
Mg2FeN2,mvc-15544,12,-6.135155995,3.674166846917148,-0.6200545239520003,119.73814062067592,0.0,5.510159739013472,6.259019346408348,3.0,-1.0
Mg2CoN2,mvc-15553,12,-5.788008428,3.823487414313267,-0.5452439739519995,117.74435081968416,0.0,5.468626668276049,6.254804575767658,3.0,-1.0
Li(NiS2)2,mvc-16739,227,-4.741291847857143,3.7063980675776236,-0.8325553201190488,226.3285820892271,0.0,6.840452006249294,6.840452006249294,3.0,-1.0
Mg(MnS2)2,mvc-22,141,-5.9562099050000015,3.1657592031573234,-1.1254024109729082,275.31701222977046,0.0,7.374608420809947,7.374608420809947,3.0,-1.0
MnS2,mvc-34,227,-6.3525983366666665,3.595439797261621,-0.9833696019683912,219.96434534297939,0.0,6.775724865713039,6.775724865713039,3.0,-1.0