pretty_formula,task_id,spacegroup.number,final_energy_per_atom,density,formation_energy_per_atom,volume,band_gap,min_abc,max_abc,Dimension,Dim
YTa3O9,mp-752515,11,-9.696386839615384,7.728331921241523,-3.523248899455127,333.35870670578817,3.2141,5.3175669999999995,8.318159481589722,3.0,-1.0
TiBi2O5,mp-752676,36,-6.994197810625,7.131260483743665,-2.381211813072916,254.19444598476426,2.5795000000000003,5.61132,8.455562159479404,3.0,-1.0
ZrBiO4,mp-752685,2,-7.523396455833333,7.214905242471343,-2.619996986666667,335.2901410672992,1.1021999999999998,5.499527,7.858835547456822,3.0,-1.0
Y2Pb2O7,mp-752849,227,-7.098194706818182,7.433625172825261,-2.545658829734849,314.6147505573744,1.2087999999999997,7.6342203803245035,7.6342203803245035,3.0,-1.0
BiOF,mp-752949,166,-5.381808635,7.461909927678152,-2.1963919974800006,108.58757120873872,3.3142000000000005,8.240134142314977,8.240134268181617,2.0,1.0
BiOF,mp-753160,62,-5.3929162800000014,9.071391196555968,-2.2074996424800006,178.64308970217766,3.364,3.791646,7.388758,3.0,-1.0
HfTiO4,mp-753197,1,-9.54172949375,6.989656311448525,-3.7358390368055545,275.9192355007781,2.826,4.770777,10.17510644294422,3.0,-1.0
Bi2OF4,mp-753309,15,-5.083932317857141,8.045883513710466,-2.5542273715728565,210.4922913370668,3.9646,5.831377115020857,7.105025473422388,3.0,-1.0
LiSiBiO4,mp-753327,62,-6.563548028214287,5.6400499143174025,-2.5339861608333334,362.72977204706126,3.3688,4.924821,10.791319999999999,3.0,-1.0
BiOF,mp-753360,62,-5.375524944166667,8.777057167826309,-2.1901083066466684,184.6337924276309,3.1144000000000003,3.644139,7.7492649999999985,3.0,-1.0
TaGaO4,mp-753378,30,-8.180143780833333,7.905905189784452,-2.868721279583333,132.18456116645808,3.3885,4.670979,5.650893,3.0,-1.0
WOF3,mp-753398,19,-6.037820915,5.8506849917732415,-2.614932446964,291.5787833359317,2.3593,5.495003,9.546242999999999,3.0,-1.0
TaCrO4,mp-753467,109,-9.0400992275,7.245984661124681,-2.960018065,136.09829916791338,2.4948,5.6218813646112284,5.621910301245565,3.0,-1.0
BiOF,mp-753478,14,-5.397428354166667,8.073413969786634,-2.212011716646668,200.72566045968784,2.5886,5.773102,6.038105310693577,3.0,-1.0
Li4FeSb(WO6)2,mp-753494,1,-6.4720008367499995,6.001921188957745,-2.188804129166667,423.3250509250989,2.116,5.171463529043302,10.909449241547899,3.0,-1.0
HfCoO3,mp-753534,62,-8.472855324,8.2492444494734,-2.88715471375,229.8166236890823,2.4807,5.403920000016007,7.82869300002229,3.0,-1.0
Li2BiO3,mp-753544,15,-5.230974250833333,6.2316833008329375,-1.8234948425694444,288.7018394163889,1.2442000000000002,5.695957059933653,10.384392954193377,3.0,-1.0
BiOF,mp-753594,129,-5.416113528333334,8.659975659396876,-2.2306968908133338,93.56500612628484,2.6891,4.014177,5.80658,3.0,-1.0
Bi3O4F,mp-753600,63,-5.55723493625,7.951365001503535,-1.7980705688987504,296.52228529904653,2.1122999999999994,6.620288974527093,11.573101,2.0,1.0
BiOF,mp-753673,11,-5.333770358333333,8.376865067688806,-2.148353720813334,386.9087870355307,2.3145,3.9490819999999998,12.424514199463134,3.0,-1.0
Bi4O5F2,mp-753699,14,-5.487862970909092,7.1227594494618085,-1.8851752571481823,444.77531771159346,3.104,5.421179,14.090383237087948,2.0,1.0
Ta2MnO6,mp-753736,136,-9.400049973611113,7.77143954942217,-3.103338374512797,438.3098315412123,2.1755000000000004,4.833438000001862,10.552228174481538,3.0,-1.0
Ta3O7F,mp-753747,65,-9.453454993636363,8.184016911193693,-3.388587602267275,136.72186596494714,2.2625,3.886863,6.30989176228,3.0,-1.0
Bi3O4F,mp-753755,5,-5.59205305875,8.037448925625961,-1.8328886913987503,293.34642662243255,2.143,5.83210802624034,9.230331845341476,3.0,-1.0
HfFeO3,mp-753856,62,-8.732660445,7.960036505344464,-3.0464228177500003,235.58952679848446,3.0327,5.427722,7.875288,3.0,-1.0
ScBiO3,mp-754009,161,-7.384874837000001,7.084729768654809,-2.79297487275,141.53653536626092,3.2425,5.918435646988907,5.918435860776478,3.0,-1.0
YIO,mp-754038,166,-6.955877166666667,5.270450509881966,-2.8771607676388897,146.07066145707074,2.3983,11.066566990071399,11.066566996991343,2.0,1.0
Y(BiO2)3,mp-754107,148,-6.549976096,7.838788976372577,-2.1889194104166667,343.9556208877968,2.0434999999999994,7.015029893694395,7.0150300034560775,3.0,-1.0
Ba3Hf2O7,mp-754128,139,-8.267846049166666,7.531870045736976,-3.6519336765625,194.22310442210843,3.5977,11.395524570027435,11.395524570027435,3.0,-1.0
YBiO3,mp-754152,148,-7.386522392000001,7.18768945681628,-2.7678220260833344,159.8162094245122,2.6026,6.151314209866457,6.151314269330743,3.0,-1.0
AlInO3,mp-754157,194,-6.533175647999999,5.613715616053324,-2.6863244547500003,112.28447654040943,2.169,3.2838203971112674,12.023484,3.0,-1.0
LiBi3(ClO2)2,mp-754206,63,-5.1168494905,6.788270845459158,-1.809910527985334,376.11900992468,2.7237000000000005,6.800678615815044,10.977518,2.0,1.0
LiTaO3,mp-754345,127,-8.348460486,6.703179903163183,-3.0477211054166675,116.86981919174187,2.3951,3.942623,5.444507,3.0,-1.0
Hf2N2O,mp-754361,13,-10.4620963475,10.555205986126838,-2.4490988387019983,252.33584667148872,2.0669999999999997,5.489714,7.931038112449152,3.0,-1.0
Ta2CrNO5,mp-754561,1,-9.421002321666666,8.041162918382138,-2.694735403736666,209.76578330597243,1.3552999999999995,4.761667092936045,9.249168232719306,3.0,-1.0
SrTaNO2,mp-754625,12,-8.7407430855,7.696091721356412,-2.7425306838093326,271.4943666031789,1.0806000000000004,5.8071928737304725,7.052083669998036,3.0,-1.0
NiSnO3,mp-754654,148,-5.731862607,6.4793061381278365,-1.6593216187499995,231.0668176468014,1.7885,5.316915871401578,9.924700819038376,3.0,-1.0
HfMnO3,mp-754657,62,-9.218529765,7.793032028641508,-3.1835214498730338,239.8651885281712,3.0309,5.411020000089631,7.906697000001644,3.0,-1.0
Hf3N2O3,mp-754668,8,-10.399835055,8.980418723625332,-3.085646638563752,226.13401814679955,3.2802999999999995,5.669022513571278,10.649152556581628,3.0,-1.0
Nb2Pb2O7,mp-754711,227,-7.715465570454546,7.371597990512238,-2.502050797613637,320.86669375326323,1.0428999999999995,7.684457488700683,7.684457488700683,3.0,-1.0
Ta2CrNO5,mp-754750,38,-9.411251083333333,8.039676924954692,-2.6849841654033337,419.60910967199686,1.3735,4.772200948033727,10.37525612689253,3.0,-1.0
Ta2CrNO5,mp-754795,65,-9.421368822222222,8.074593443573038,-2.6951019042922217,417.7946171662534,1.0508000000000002,4.743914759655048,10.42464378643592,3.0,-1.0
Hf2N2O,mp-754833,1,-10.486432374,11.219624516936012,-2.473434865201999,237.39268950407347,1.0657999999999994,5.408780999999999,6.981636385973134,3.0,-1.0
Hf2N2O,mp-754837,1,-10.4865493675,10.542189132073084,-2.473551858701998,252.64741563003258,2.3926,5.436634,10.193788973779967,3.0,-1.0
TaAsO4,mp-754840,7,-8.162236094166667,6.6206515843731975,-2.5789764425,160.45302360056255,2.8095000000000003,5.127199,5.713345065691026,3.0,-1.0
Hg2W2O7,mp-754961,13,-6.028004552272727,8.356325719011625,-1.7060707385227274,350.0810085976882,1.9785,3.875256,14.885947073244116,2.0,1.0
BaTeO4,mp-754967,60,-5.9344781225,5.1023916850925115,-2.2603225166666667,428.18519782522367,2.2055,5.148304,13.837266,3.0,-1.0
CsInO2,mp-755004,194,-4.7767862125,6.598868928575687,-1.7421819526077584,140.77858860504216,1.9415,3.4727610358563403,13.478951,3.0,-1.0
RbTaO3,mp-755018,160,-8.105833925999999,7.6223315867515264,-2.99077230425,68.49564662455086,2.5625,4.091552424737217,4.0915529466707365,3.0,-1.0
Ta2CrNO5,mp-755086,12,-9.412194814444444,8.033946123033148,-2.6859278965144444,209.95421333850646,1.3251000000000004,4.772630789153294,9.217700195048543,3.0,-1.0
In2Pt2O7,mp-755116,227,-5.836306651363636,9.351049047000037,-1.5304120003409096,259.9028516955359,2.049200000000001,7.163226452871081,7.163226452871081,3.0,-1.0
TiBi2O5,mp-755121,63,-6.9011788725,6.93572236897703,-2.288192874947917,261.3609241261523,1.7449000000000003,6.492137336954294,10.421532000000001,3.0,-1.0
TaVO4,mp-755190,109,-9.088549719166666,7.098338600168158,-3.0481587900000013,138.43574314041692,1.8997,5.6531311830995925,5.653149923825568,3.0,-1.0
Li4NbFe(WO6)2,mp-755203,1,-6.979403367000001,5.692818354268577,-2.397591469416668,429.4776882675427,2.3045,5.180597168284174,10.977737433353058,3.0,-1.0
Ta2CrNO5,mp-755234,7,-9.417983356666667,8.039472731230044,-2.6917164387366674,419.6197672797613,1.4756000000000005,4.772241000018648,10.362501679688018,3.0,-1.0
Li4Mn(WO4)3,mp-755247,3,-6.854056065,5.929820914186598,-2.2597604239474247,462.7330394565744,1.9187000000000003,7.1293635669659885,10.222235454800431,3.0,-1.0
Hf2N2O,mp-755314,12,-10.486092674,11.132176676007779,-2.4730951652019995,179.44313027129726,2.0361,7.0421095822127775,8.176801850529154,3.0,-1.0
Zr2N2O,mp-755368,12,-9.741301404666666,6.020949006731456,-2.292099183868665,187.36930259651749,1.8344,7.11388463656932,8.299177022863532,3.0,-1.0
BiSbO3,mp-755382,148,-5.778914895,7.542578068469687,-1.62770850375,166.76267335128563,2.1974,5.978990232114617,5.978990721169335,3.0,-1.0
SrTaNO2,mp-755441,6,-8.756007722,7.766494989541862,-2.757795320309333,269.0332704808559,0.9819999999999998,5.730442,8.179197,3.0,-1.0
Y2Hg2O5,mp-755511,2,-6.262535259444442,6.973381795538416,-2.399354114953704,313.843845893557,1.6861000000000002,3.553668,11.63411304198455,3.0,-1.0
YTlO2,mp-755544,166,-7.0302786275,7.776998737255214,-2.7004148697916666,69.45524451246949,1.7575000000000005,6.809538314447023,6.8095383759119095,2.0,1.0
GaBiO3,mp-755568,161,-5.854592587999999,8.676556158478451,-1.92356734425,125.04979164817884,3.0727,5.64157233826218,5.641572613697886,3.0,-1.0
Ta2Pb2O7,mp-755663,36,-8.268829365909092,9.07302600577317,-2.736055940340909,325.1490378121892,2.8154000000000003,5.909930999999999,13.951860887060368,3.0,-1.0
Li4NbCr(WO6)2,mp-755680,1,-7.1340426410000015,5.696544585086269,-2.4570785139166675,426.95285406154665,1.8459,5.179518623562715,10.954671357743873,3.0,-1.0
Ta2Pb2O7,mp-755731,227,-8.240899187727273,9.2927033148626,-2.708125762159092,317.46259144029665,1.6248999999999991,7.6571857943638815,7.6571857943638815,3.0,-1.0
HfPbO3,mp-755790,62,-8.275586885,10.260779737553012,-2.9942204197499995,280.74131488770337,2.8705000000000007,5.8099989999999995,8.27873,3.0,-1.0
ZrPbO3,mp-755798,62,-7.849810856499999,7.8899281305977045,-2.8503420352499997,291.63641904755366,2.636799999999999,5.889325,8.354308999999999,3.0,-1.0
Ta2Mn2O7,mp-755851,227,-9.060307359545458,6.962349202846093,-2.842404979543668,278.46031860798166,1.9731,7.3298109110236975,7.3298109110236975,3.0,-1.0
Zr2N2O,mp-756029,1,-9.721463426,5.672352152505406,-2.2722612052019984,265.178885473388,1.9501,5.529361,10.328572393087583,3.0,-1.0
TaCuO3,mp-756050,12,-8.252644693999999,6.905862719148173,-2.5138485527500003,281.3230122078083,1.5960999999999994,6.4391222159801424,6.823248275111202,3.0,-1.0
SrTaNO2,mp-756088,7,-8.7588527205,7.794590261839023,-2.760640318809334,268.0635513888646,1.4941000000000004,5.72168,9.979245905169588,3.0,-1.0
Hf2N2O,mp-756096,5,-10.4833968945,10.494661782664881,-2.4703993857019984,253.79158418433158,2.4005,5.493907704840425,10.317589633937668,3.0,-1.0
Y2HgO4,mp-756103,12,-7.343947239285713,6.836850624104918,-3.0269066011904755,214.9005034851613,2.1903,7.102134754281138,10.160722151634351,3.0,-1.0
CrInO3,mp-756147,62,-6.768265519500001,6.454494653224264,-2.142519998249999,221.0578738076804,1.4759000000000002,5.247183001174916,7.729873000004788,3.0,-1.0
Zr2Bi2O7,mp-756175,227,-7.7426418845454545,7.4579152538732805,-2.77944841534091,317.2403089217637,2.8026000000000004,7.655398228421039,7.655398228421039,3.0,-1.0
Ba2Hf7O16,mp-756180,148,-9.5504229796,9.0296686851426,-3.8916665352000006,327.35232993854567,4.1255,9.778026986206623,9.778027268226703,3.0,-1.0
Cd(GaO2)2,mp-756190,62,-5.398655668571428,7.000024138682225,-1.9755495771428568,299.70691087591183,1.2321999999999995,3.008511,10.768494,3.0,-1.0
Ta2CrNO5,mp-756204,8,-9.415043664722225,8.05768686677194,-2.6887767467922226,418.6712306285281,1.4326000000000003,4.760177927633168,10.368097995579806,3.0,-1.0
ScBiO3,mp-756205,62,-7.374150052500001,7.47686813446329,-2.782250088250001,268.2267728755639,2.7215,5.600617,8.104092999999999,3.0,-1.0
VBiO3,mp-756282,62,-6.8891379850000005,8.167740832711662,-2.0833506277500016,250.40625843247986,1.2434000000000005,5.49757725782476,7.881178633451724,3.0,-1.0
HfCrO3,mp-756322,62,-9.1822832415,7.5559032124172125,-3.11543669625,244.8067671511725,1.5871000000000004,4.906804,9.361863,3.0,-1.0
Y2Pt2O7,mp-756347,227,-7.431584949545454,8.263414399152575,-2.45027441064394,273.283131533779,1.4655000000000005,7.28410070026067,7.28410070026067,3.0,-1.0
Te(WO4)3,mp-756368,1,-6.946985755,6.805593869519884,-1.9524441321875,212.5482160041619,1.8034,5.252769,7.519611718568785,3.0,-1.0
TaAsO4,mp-756401,36,-8.125813541666666,6.496920948003665,-2.54255389,163.50877183521112,2.9152000000000005,5.678001,7.569149252056336,3.0,-1.0
Ga2HgO4,mp-756460,62,-5.082787142857144,7.341272844837537,-1.748139536428571,365.5570859164192,1.3286999999999998,2.955476,12.615969,3.0,-1.0
WO3,mp-756478,204,-7.505950431875,6.97175161598509,-2.1699197128125,220.87785649020316,1.422,6.5956564034255125,6.5956564034255125,3.0,-1.0
Li4Ni3WO8,mp-756537,166,-5.613551390625,5.619618724367212,-1.7975169077083333,152.3779159301009,2.08,10.318480769539716,14.573825318431261,3.0,-1.0
Ta3(OF)5,mp-756593,71,-8.305256435384615,6.024090900327038,-3.3895325197846162,197.8703821525216,2.2277,12.819919826290214,12.819919826290214,2.0,1.0
SbOF,mp-756654,62,-5.3977209849999985,5.3282804934967976,-2.1326487041466664,195.41197692253272,3.024,3.572746,12.576527,2.0,1.0
ZrCoO3,mp-756665,62,-8.0835933775,5.751934606153611,-2.7797904112500005,228.82372431914038,1.7283,5.033712154719318,8.396207675388814,3.0,-1.0
HfBiO4,mp-756683,2,-7.868033159999999,9.112183965292006,-2.7297189875,329.0891642114668,1.0418999999999996,5.4781629999999994,7.804896002874734,3.0,-1.0
NaBi5O8,mp-756721,2,-5.552112040714285,7.393665220559058,-1.6428157895238091,537.1671484950358,2.2507,7.528574000000001,10.106682747921644,3.0,-1.0
TaTlO3,mp-756933,227,-8.0861682055,9.208140022383308,-2.6948828022500004,312.57576989334945,0.4600999999999997,7.617692466421047,7.617692466421047,3.0,-1.0
V2Bi4O11,mp-757152,4,-6.531521275294117,7.430381330389186,-1.9982113025735293,497.8223886671168,2.326,5.716428,11.329797,3.0,-1.0
LiTa3O8,mp-757158,51,-9.180805473958333,7.464283065298551,-3.2268405150694446,603.128200272175,2.2391,3.9109480000000003,17.162042,3.0,-1.0
Bi3O4F,mp-757162,13,-5.6067444625,7.783173669273856,-1.84758009514875,302.93001565679504,2.1545,5.765438,9.088949858833912,3.0,-1.0
Hg2W2O7,mp-757196,2,-5.992127419090909,7.826447418872679,-1.670193605340909,373.7827368300093,2.4478,5.314241,9.094004200974895,1.0,1.0
Li3Si2Bi3O10,mp-757200,7,-6.290455018333334,5.902536397255522,-2.3624464484722227,486.09211051829146,3.1689999999999996,5.455064,12.909884335558429,3.0,-1.0
Bi17W3O34,mp-757274,1,-6.131692664074074,8.873277971347106,-1.7556817637500004,869.8546264617578,2.0217,10.273977,10.418440209556227,3.0,-1.0
Hf2N2O,mp-757336,1,-10.55503125,10.407316418264836,-2.542033741201999,511.84315576817016,2.0236,8.700431,8.737600462420959,3.0,-1.0
Ca4Bi6O13,mp-757343,8,-6.010735896956521,6.983940124616844,-2.2474203980978267,771.3995751825862,1.7302999999999995,9.30454715544099,9.446234296546796,3.0,-1.0
Ti2Sn3O10,mp-757375,35,-7.319102806999999,5.703194789286858,-2.6340125212777767,356.29647934181384,1.7265999999999997,4.7603941656457405,15.722667000000001,3.0,-1.0
Sr2Tl2O5,mp-757407,14,-5.301585328333333,7.5369965786301565,-2.0426302382870367,585.1688569366113,0.9457999999999998,6.099028,14.124099,3.0,-1.0
LiSi6Bi9O26,mp-757434,143,-6.6661815776190485,7.101681519631339,-2.3838382927579365,578.0726187906777,2.8677,7.082451,9.708097075276132,3.0,-1.0
Ba8In8O19,mp-757574,8,-5.758597035428572,6.080574090950142,-2.386229024392857,633.880596146411,1.3088000000000002,8.626773857424164,9.478131453189391,3.0,-1.0
NbTlO3,mp-757636,1,-7.5042397195,7.223616062570492,-2.46424883425,634.9883592893651,0.7509999999999999,7.653954,13.257647559644056,3.0,-1.0
FeBi25O39,mp-757766,1,-5.767367559846154,8.849072549468108,-1.6355396535192313,1107.9548991323613,2.2202,8.970047000000003,14.611596028139395,3.0,-1.0
LiSiBi3O7,mp-757777,173,-6.196794349583333,7.708816059696537,-2.136461174756945,333.4355413126984,2.9748,5.224253,8.584766983636309,3.0,-1.0
LiSi2(BiO3)3,mp-757781,14,-6.544612285333332,6.297265078279122,-2.3685694149722214,879.7272708680442,3.0624,7.6472190000000015,10.726271,3.0,-1.0
Bi12PbO19,mp-757785,146,-5.706582055625,8.879236930541019,-1.6109350963671876,564.5856845763259,2.0942,9.057674709926,9.05767482769132,3.0,-1.0
Ba4(PtO3)3,mp-757840,1,-6.09005788875,7.994616623857982,-2.083833159453125,796.6948117606889,1.5953000000000004,8.761696,10.24043967952983,3.0,-1.0
LiSiBiO4,mp-757883,173,-6.5315062525,5.621474622274871,-2.501944385119047,727.856712773528,2.9490000000000003,8.213030999999999,10.115931917765758,3.0,-1.0
Hg3(SF)2,mp-7580,199,-2.6085665992857145,7.8873123825878215,-1.0802635855185716,296.386928572158,2.2368,7.2748991801725325,7.2748991801725325,3.0,-1.0
Bi10(Pb2O7)3,mp-758225,2,-5.638698191891893,8.673142830434552,-1.5755846685472967,702.4562691785134,2.3235,7.3596460000000015,14.396036189652936,3.0,-1.0
Zr4N2O5,mp-758272,108,-9.62876667431818,5.773515591250575,-3.144759925319092,544.0564173656767,2.2924,8.907763244180382,8.907763244180382,3.0,-1.0
YTa3O9,mp-758317,1,-9.646800217307693,6.970724400080176,-3.473662277147435,369.5895270552514,2.333,5.562158,8.860921239377879,3.0,-1.0
LiPWO5,mp-758385,15,-7.05560976625,5.234731165550628,-2.4109019485193457,382.8816215158426,2.4931000000000005,7.53937713795417,10.864461640606267,3.0,-1.0
V2Bi24O41,mp-758482,16,-5.947271287164179,8.562833825495554,-1.734779946884329,1119.5985483327793,1.6562,10.352136999999999,10.444119,3.0,-1.0
Bi17(WO11)3,mp-758626,1,-6.106122852830187,8.801428656917425,-1.7276526047405654,873.9370125405636,1.2990000000000004,10.191631,10.41824422051384,3.0,-1.0
LiNi6O6F,mp-758667,139,-4.893281349285714,5.994217819777992,-1.2861180712159523,131.33577898066596,2.2732,15.001396041863673,15.001396041863673,3.0,-1.0
CdGeO3,mp-7588,88,-5.489616472625,6.213606936349901,-1.833033668375,996.4899421647864,1.3004,10.898857622093198,10.898857622093198,3.0,-1.0
Bi3O2F5,mp-759405,62,-5.19286398775,8.158092915550418,-2.4664455340950004,613.8363850905122,3.2897,5.7345510000000015,18.111993,3.0,-1.0
Bi2O3,mp-759526,146,-5.720779864461539,8.907080725596586,-1.6173668592115396,1129.288136935189,1.7255000000000005,10.413620536308878,10.413620902309148,3.0,-1.0
LiBi2PO6,mp-759653,14,-6.26995069575,6.4260215139451065,-2.2123236796904755,570.4337905956278,2.7156,5.670747,14.177382454354687,3.0,-1.0
BiOF,mp-759750,14,-5.333330183055555,7.377417338050507,-2.147913545535556,658.9872622055523,3.1627,7.663169,10.982156,2.0,1.0
Bi25BO39,mp-759766,1,-5.750493819230769,8.125298340673915,-1.6041676222756416,1197.4443472347184,1.8876,9.317368,14.619832288224273,3.0,-1.0
BiOF,mp-759825,62,-5.380809045,8.349340152843126,-2.19539240748,194.0921463953129,2.5866,3.982879,8.208150999999999,3.0,-1.0
Bi4O5F2,mp-759848,62,-5.505392679772727,8.890994250880185,-1.902704966011818,712.6374188812471,2.511,8.502623,9.217656,3.0,-1.0
W(OF)2,mp-759856,63,-6.4725162150000015,5.896097374942514,-2.4846046799760004,142.97726584795782,1.8619,3.8807969205879607,9.493492,2.0,1.0
BiOF,mp-759870,61,-5.373131997291666,8.319619748091249,-2.187715359771667,779.1420282744002,2.9045999999999994,5.677471,11.801267999999999,3.0,-1.0
BiOF,mp-759883,166,-5.4067223916666665,8.562738010689541,-2.2213057541466674,94.62752154899769,3.0266999999999995,7.2052081409154285,7.205208628673288,2.0,1.0
Bi14SO24,mp-759924,8,-5.82989324,8.242830447861737,-1.7317024334134616,673.209277690965,2.6584000000000003,8.804371095570255,10.6688287435749,3.0,-1.0
Bi3O2F5,mp-759985,13,-5.16503851975,7.7596587740328875,-2.4386200660950013,645.3549582968764,3.4514,5.958696,13.544198902956682,3.0,-1.0
Hf3N2O3,mp-760007,63,-10.433667765625,9.019009349336685,-3.1194793491887496,225.16643369080285,3.3073,5.645702589336424,10.569483,3.0,-1.0
Ta2MnO6,mp-760053,15,-9.391001215,7.782696248392978,-3.0942896159016846,875.3517421274922,1.9698,7.570451598668074,15.553753183865688,3.0,-1.0