pretty_formula,task_id,spacegroup.number,final_energy_per_atom,density,formation_energy_per_atom,volume,band_gap,min_abc,max_abc,Dimension,Dim
Te2NO7,mp-1203388,62,-5.553747510499999,3.8974733519528133,-1.157874277613,649.6533383284569,0.0,4.539933,15.761576999999999,2.0,1.0
In10(Pb2S7)3,mp-1203419,12,-4.2137651154054065,5.850929797404888,-0.8968595228547297,869.7983017885878,1.0766,14.13573972206407,15.939856374206636,3.0,-1.0
Cu3PO7,mp-1203515,61,-5.678941933636364,4.22658502899262,-1.36707246521104,1048.5408637265089,0.008199999999999985,6.743291999999999,14.184771,3.0,-1.0
Ga2Cu3(SeO3)6,mp-1203611,14,-5.340609349137932,4.560798431350312,-1.3491866485021555,795.0501255869392,0.5061,7.6899688838767775,12.487928690507646,3.0,-1.0
Cs11Fe10S16O,mp-1203755,139,-4.4368906205263166,3.7609488482045035,-1.0939180354866156,1125.636228931781,0.0,11.403642315366481,11.403642315366481,3.0,-1.0
Si7Tc4,mp-1203760,116,-7.792530485227274,6.45919765123904,-0.5725597779545459,605.2707203376392,1.0650000000000013,5.7702029999999995,18.178895,3.0,-1.0
KRu(NO2)4,mp-1203796,14,-6.479927649107142,2.49340902535483,-1.0399275703585715,863.6058547773413,0.025000000000000026,8.769761,10.417126,3.0,-1.0
Cs5Na(W2N5)2,mp-1203906,80,-7.541178668000001,5.714616855039874,-0.6837340763394252,908.3127301560013,1.8355,11.02153944958353,11.02153944958353,3.0,-1.0
Na2O9,mp-1204051,14,-4.617516150681818,1.7747052695507446,-0.4495994550378787,711.0126602653702,0.0,5.202804,12.77579790760628,3.0,-1.0
Se2S2O7,mp-1204052,14,-5.342032294318182,2.9334025935670645,-1.3731722061079557,756.3859146372826,0.018400000000000027,5.853242,17.659414181460782,0.0,1.0
Ca3Ge4,mp-1204241,176,-4.016849178095238,4.002777150072808,-0.5155761695238092,1022.4993194724408,0.3225000000000007,8.789109535242407,15.284197,3.0,-1.0
Y3Ga2,mp-1204352,140,-5.66487852425,5.289220334429072,-0.5737576552500002,1020.1132107335344,0.0,11.133649843974213,11.133649843974213,3.0,-1.0
TlHg6S4Br5,mp-1204377,87,-2.187303339375,6.6900465256416535,-0.54603288078125,960.9233474466008,1.7971,11.24555045897763,11.24555045897763,3.0,-1.0
KNa2(NiO2)2,mp-1204380,14,-4.3423924822222215,3.2898214478113377,-1.2363215249629635,537.9878074500817,1.1127,5.8212019999999995,11.167287,3.0,-1.0
Si,mp-1204627,63,-5.327904967826087,1.9744585589214856,0.09740905217391324,1086.528358995579,1.3019999999999998,10.034208999999999,10.589797472862736,3.0,-1.0
Y(Al10Cr)2,mp-1204650,227,-4.518455903043479,3.2370862360917525,-0.14088709202898625,751.5355709584499,0.0,10.205199825535603,10.205199825535603,3.0,-1.0
V2Ag6As2O13,mp-1204976,15,-5.555567714782609,5.7445234147667295,-1.3681313641847819,639.9474389721566,0.9889,9.999417857630013,13.205773622636919,3.0,-1.0
Ca10Si3Pt7,mp-1205012,193,-4.86173524125,6.5635625747227415,-0.9203204997499996,936.3921635155284,0.0,8.833910454883839,13.855467,3.0,-1.0
ScMnSi2,mp-1205070,55,-7.231304951875,4.495436805549123,-0.6451040480387936,691.7733761645262,0.0,7.8719660000000005,9.740601,3.0,-1.0
RbOs2O9,mp-1205111,33,-6.634981175208334,4.755448733110255,-1.4977984926041674,851.9069636837573,0.9617,5.894536,13.5335,3.0,-1.0
Ti8In5,mp-1205133,215,-6.0223780909615385,6.333602202155102,-0.10527387685897448,1003.6494304686134,0.0,10.01215,10.01215,3.0,-1.0
Mg3(Al9W)2,mp-1205144,227,-4.367929557608695,3.873351094981339,-0.1010835563043476,794.1936338497623,0.026699999999999943,10.394744040873347,10.394744040873347,3.0,-1.0
Y3H,mp-1205301,51,-5.946716006875,4.374539373598352,-0.2869285065299998,406.5055516041134,0.0,3.6746300000000014,17.377804,2.0,1.0
Te6RhBr3,mp-1205332,167,-3.4410551545,5.340963635622522,-0.3275658474999997,689.1035320914682,1.2836,9.523140888273467,9.523141054551802,1.0,1.0
Te6RhI3,mp-1205361,167,-3.3113524510000003,5.2537501745863375,-0.23173732149999965,789.6747023962929,1.2217000000000002,10.097938824684617,10.097939244944584,1.0,1.0
Cs4FeO3,mp-1205381,2,-4.199578354375,4.6842208836417045,-1.4426272575592671,901.0800274274844,0.4049999999999998,7.633418907516409,12.272370982713776,3.0,-1.0
Rb2Pd3S4,mp-1205388,70,-4.5100875805555525,4.3799634550420095,-1.022012798055556,468.93984175842536,1.3424,6.308645227598393,14.747435059171744,3.0,-1.0
AgSbS2,mp-1205392,9,-3.9977761525,4.982195554740275,-0.5208919082291672,391.63213235978674,1.4307999999999996,6.912758921115072,13.303380843910773,3.0,-1.0
Ba2YInSe5,mp-1205397,36,-5.014881991111111,5.183298715022056,-1.622031558709491,559.4684048644975,1.1767999999999996,9.802315899456463,13.559045999999999,3.0,-1.0
SrSnS3,mp-1205419,62,-4.69888525,4.2963242852136485,-1.475280708208333,467.7063906484736,0.8722000000000003,3.906286,14.239085999999999,3.0,-1.0
TlSnI3,mp-1205533,63,-2.767149284,5.550129465083955,-0.5784967479999998,421.1428020346327,1.6359,7.947774894296516,11.920353,2.0,1.0
Y2Co2I,mp-1205726,194,-6.321985925,6.095439567335927,-0.5872678386666671,230.2425746304396,0.0,3.9551608348207536,16.995219,3.0,-1.0
BaZnSb2,mp-1205765,139,-3.45913838375,5.942909357175879,-0.59995915375,249.381397954483,0.0,12.577463215801867,12.577463215801867,3.0,-1.0
K5Bi4,mp-1205955,12,-2.6959857166666668,4.31123227769063,-0.3501932749999999,397.26501288639537,0.0,7.008718437674323,11.728007379351787,3.0,-1.0
Mg2Ga2S5,mp-1206963,164,-4.3375329,3.10018785541274,-1.3795661845138891,186.6016794921469,1.1585,3.73572633118715,15.439557,2.0,1.0
Rb3Bi2,mp-1207251,15,-2.444720342,4.6138952386242735,-0.30038617450000016,485.40681628061805,0.0,7.134140562836704,9.938335683178547,3.0,-1.0
Zr(AlC)4,mp-1207385,164,-6.966909911111111,3.807760727849542,-0.251673605555555,215.59839869522997,0.0,3.35569155029362,22.108068,3.0,-1.0
ZrHg3(SBr3)2,mp-1207395,14,-3.05388950875,5.485290467188816,-0.8683661171875006,748.670019940957,1.8559,7.143609,13.679188682018975,3.0,-1.0
Zr3Tl2(CuSe4)2,mp-1207399,12,-5.392815346000002,6.298742712303581,-0.95734114525,379.9466994934277,0.3712,7.6891597904232025,14.534158740850641,3.0,-1.0
Zr3Tl2(CuS4)2,mp-1207410,12,-5.8764531446666695,5.14292798044033,-1.4532038030000003,344.2044444341618,0.7091999999999996,7.505206169840506,14.012330421075035,2.0,1.0
Zr9(CoP2)2,mp-1207414,127,-8.472754011000001,6.530304122712291,-0.9528150306190478,540.4904340556426,0.0,3.680946,12.117535,3.0,-1.0
Zn4InS6,mp-1207467,164,-3.560342537272727,3.9592904793255497,-0.9577427762499996,238.57498956780688,0.0,3.8493192142590615,18.592011,2.0,1.0
Zn7P10,mp-1207476,43,-3.86701081382353,4.0536047499765315,-0.1640070559243704,628.8875683125052,1.4863000000000004,11.088256322782767,17.008050735449842,3.0,-1.0
Zr6FeS2,mp-1207526,58,-8.352055697499999,6.445227875049052,-0.9407016537500018,687.7083577908481,0.0,3.4435379999999998,15.700291,3.0,-1.0
Zn3Cd3(TeO6)2,mp-1207534,230,-4.8303650675,6.320972839176277,-1.6412406877499996,1030.4820644556887,0.9112,11.02099425523977,11.02099425523977,3.0,-1.0
YCoB4,mp-1207600,55,-7.29684116625,5.538436670545812,-0.5814485009722219,229.16276202982448,0.0,3.395199,11.428708,3.0,-1.0
YFeB4,mp-1207634,55,-7.544856107083333,5.507913844218569,-0.6025159276388882,226.70855178483367,0.0,3.382026,11.387677,3.0,-1.0
Y6RhI10,mp-1207685,2,-4.867583325882354,4.798790406975329,-1.255626814117647,659.3258840761928,0.08900000000000041,7.714333,9.796370176433157,3.0,-1.0
Y(ZnP)3,mp-1207692,194,-4.3919961221428565,4.5646617436453045,-0.6083447610544214,275.0581302072009,0.2474999999999996,3.9966832423154326,19.883569,3.0,-1.0
Y2(Al3Rh)3,mp-1207711,63,-5.746752212142857,5.126612833176616,-0.8370344759523799,472.489034305562,0.0,7.562566461456982,9.488684,3.0,-1.0
Y2(Al3Pd)3,mp-1207714,63,-5.1365777225,5.054754568547128,-0.6949512848809525,486.13322383519903,0.0,7.670167034442601,9.511538,3.0,-1.0
Y5(NiTe)2,mp-1207773,63,-6.392170382777778,5.9401583913495575,-0.8167002953703713,456.8407216032544,0.0,7.823500876648638,15.035165,3.0,-1.0
Y3Pd,mp-1207777,62,-6.617843364375,5.504160610762804,-0.4730195768750001,450.2844468446869,0.0,6.5279690000000015,9.730905,2.0,1.0
Y3Rh,mp-1207780,62,-7.198118091875,5.645056148011324,-0.5071877893750001,434.91047624535605,0.0,6.3035879999999995,9.526733,3.0,-1.0
Y3Co2Si3,mp-1207782,63,-6.98616614,5.2440100659080615,-0.7496672662500004,296.92081320866873,0.0,5.653402290333228,13.692628,3.0,-1.0
Y5(CoTe)2,mp-1207784,63,-6.610794941111113,6.078808050057713,-0.7401734948148158,446.68280022065835,0.0,7.8032497653099,15.021069,3.0,-1.0
Y3Fe2Si3,mp-1207786,63,-7.245551566875,5.1975560540212,-0.6686314218750002,295.6280689428972,0.0,5.683854046163571,13.6546,3.0,-1.0
Y4MgPd,mp-1207787,216,-5.7920051,4.838094132225401,-0.3509973811111114,667.7013684369366,0.0466000000000002,9.810679496467511,9.810679496467511,3.0,-1.0
Y12Al7Si,mp-1207790,140,-5.8748081024999985,4.090037310027654,-0.4127081929999996,1042.4569982653122,0.0,11.242518131508126,11.242518131508126,3.0,-1.0
Y4CdNi,mp-1207794,216,-5.726003939999999,5.544021082761719,-0.2978521244444441,631.0597137401713,0.0,9.627831582347604,9.627831582347604,3.0,-1.0
Y4MgRh,mp-1207807,216,-6.198355364583333,4.879760850063134,-0.3932766356944448,657.2162679803987,0.0,9.759055044586644,9.759055044586644,3.0,-1.0
Y3BBr3,mp-1207808,214,-5.726558002142857,4.806838972091586,-1.2994744691666666,714.7301127343076,0.0,9.755615092906595,9.755615092906595,3.0,-1.0
Y4MgPt,mp-1207810,216,-6.0909741575,5.7266160986865255,-0.5014621219444445,666.9422482840632,0.0,9.806960114798468,9.806960114798468,3.0,-1.0
Y4CdPd,mp-1207818,216,-5.785902826666668,5.7987779617013215,-0.457793489444444,658.0034479543301,0.0,9.762949788737416,9.762949788737416,3.0,-1.0
Y3NiGe2,mp-1207820,62,-6.548370147916668,5.817641537246707,-0.8107691929166663,537.4003920770771,0.0,4.1662690000000016,11.386244,3.0,-1.0
Y4MgIr,mp-1207822,216,-6.475742178333332,5.804335842545832,-0.4249763577777775,654.7310936155443,0.0,9.746738658671935,9.746738658671935,3.0,-1.0
Y4MgNi,mp-1207825,216,-5.743825120833333,4.566211444496688,-0.20277492361111152,638.0332082433331,0.030600000000000183,9.663165708203495,9.663165708203495,3.0,-1.0
Y11Ge10,mp-1207826,139,-6.41206227857143,5.704044867349657,-0.8234212882539681,992.3356680082808,0.0,11.32390592308268,11.32390592308268,3.0,-1.0
Y4MgCo,mp-1207998,216,-5.907635200833332,4.60677329798797,-0.14522148444444485,632.7611768056144,0.0,9.636476669854392,9.636476669854392,3.0,-1.0
TlSn2I5,mp-1208036,140,-2.769414681875,5.737746276435058,-0.5193072112499997,622.9905276742561,1.5673999999999997,10.096280695124172,10.096280695124172,2.0,1.0
TlHg5Br11,mp-1208065,12,-1.790544646470588,5.5660016540642,-0.503118367352941,622.4117734282672,2.1821,6.9600815558132645,10.189875658856296,0.0,1.0
TlCuAs2PbS5,mp-1208124,2,-4.2932961275,5.352015332902032,-0.6076268410624998,487.29949244978513,1.3425000000000002,8.02616,9.123508185140297,2.0,1.0
Tl4GeI6,mp-1208159,128,-2.673913360454545,6.1753710413350085,-0.5635755909090908,888.2207521621083,1.8389999999999995,9.282074,10.309339999999999,3.0,-1.0
VAg2HgO4,mp-1208167,122,-5.04825914703125,6.579442468924083,-1.2540891074479168,1072.6588116285104,0.6395000000000001,11.170308395679683,11.170308395679683,3.0,-1.0
Tl2CoI4,mp-1208175,11,-2.8779455792857145,5.565687095145682,-0.31684926285714304,581.977777045905,0.1376999999999997,7.769525999999999,9.740044921612736,1.0,1.0
Tl2PtI6,mp-1208181,128,-2.6014744088888886,6.406998857133452,-0.3861089244444445,707.6937403017348,0.5823,7.808185000000001,11.607673,0.0,1.0
Ti11CuP8,mp-1208222,55,-7.819665773250001,4.664087650958749,-1.1068704860119056,596.6101466704179,0.0,3.428485,18.469812,3.0,-1.0
Ti2Se3,mp-1208273,163,-6.426394939500001,5.3902640449316666,-1.1706512462395835,409.86381111880684,0.0,6.253561018367772,12.101918,3.0,-1.0
Te2Cl,mp-1208308,62,-2.956131350833333,4.67158902849747,-0.44264707191999975,826.5121925414269,0.7073999999999998,3.9980230000000003,16.104674,1.0,1.0
Sr4Mg3Al5,mp-1208710,194,-2.7067119295833333,2.935714551335794,-0.18282490347222216,631.5896293750012,0.0,6.0454336354880285,19.954894,3.0,-1.0
Sr3Sn4Bi,mp-1208727,140,-3.725789531875,5.9661497041848985,-0.6011938456249997,526.9729610310818,0.0,9.084364676078014,9.084364676078014,3.0,-1.0
Sr2Mg3Al,mp-1208806,194,-2.056028885,2.60638862273054,-0.06846580388888886,701.1617024567292,0.0,6.236772008996723,20.814588,3.0,-1.0
Sn7(SI3)2,mp-1208893,12,-3.372973113333333,5.017047578068455,-0.4291692194166667,548.2761438231538,0.15330000000000066,7.664016944075866,17.980225599283067,2.0,1.0
Sc2TlCu3Se5,mp-1209004,63,-4.961937075000002,6.240423398667646,-0.8888672033380683,468.18336746059725,0.8650000000000002,7.4460939548617695,16.384875,3.0,-1.0
Sc2TlCu3S5,mp-1209018,63,-5.388505947272726,5.213283674681593,-1.3258549896022729,411.0562132448964,1.0427,7.12427614034633,15.755482999999998,3.0,-1.0
Sc6Sn5,mp-1209024,72,-5.943084468636362,5.521647803636738,-0.6664777499999999,519.2360334681459,0.0,10.995789217501853,10.995789217501853,3.0,-1.0
Sc5Sb3,mp-1209044,62,-6.3658902934375,5.2469081746211454,-0.8597216378125001,746.9671039718968,0.0,7.621725,11.171339999999999,3.0,-1.0
Sb2AsS2,mp-1209066,12,-4.3898384309999985,5.014297941329248,-0.4172183072500005,253.3854569492384,0.5655999999999999,5.862666187562192,12.57728598493876,2.0,1.0
SbSeBr,mp-1209072,62,-3.528251043333333,4.8293041761893365,-0.4409712907812497,385.9662576841497,1.4384,4.082368,10.866736,1.0,1.0
Sc5Si4,mp-1209086,62,-6.6937992575,3.2692563784591373,-0.7645101902777777,684.930706886906,0.0,7.029524,13.643166,3.0,-1.0
Sc6CuTe2,mp-1209096,62,-5.9747152255555545,4.749763859935173,-0.59909043,822.9432056351628,0.0,3.8156449999999995,20.100274,3.0,-1.0
SbTe3O8,mp-1209168,206,-5.491310026041668,5.583153509551746,-1.5309577110416666,752.5371599286784,0.0,9.924682304284204,9.924682304284204,3.0,-1.0
RbCuTeS3,mp-1209173,14,-3.85884510375,3.9110021029588,-0.7518432248958327,633.150850319333,0.9764000000000004,7.523339,10.632661,3.0,-1.0
Sc11Ga10,mp-1209233,139,-5.343378772619047,4.714603531860658,-0.5844209069047618,839.4933612928686,0.0,10.658561589233743,10.658561589233743,3.0,-1.0
Rb6CdO4,mp-1209286,186,-3.4267445472727283,4.366871846205076,-1.2641303590909092,524.1596901896347,1.2857,7.021622,9.284270280944057,3.0,-1.0
Rb6Na4Tl13,mp-1209306,204,-1.946868762608696,6.2509168489663045,-0.12759476079710136,866.4746949462633,0.0,10.40221737218498,10.40221737218498,3.0,-1.0
Re3S4Br3,mp-1209349,2,-6.3093614570000005,5.661064869883245,-0.6957293927500003,1087.1762897638916,0.0,9.233979,12.992241141973967,0.0,1.0
Re3Se4Br3,mp-1209495,2,-6.00551512075,6.507187870835062,-0.3827144121875001,1137.2825436579847,0.0,9.294621000000001,13.226613081953898,0.0,1.0
Rb2Mn(TeS3)2,mp-1209516,165,-4.321172566363637,3.389022358183875,-0.8441438684913798,659.9618263106532,0.7733000000000003,6.998439283917238,15.559145999999998,3.0,-1.0
Rb2Mn3Te4,mp-1209522,72,-5.143154965555556,4.3383991089427525,-0.4743337126628349,647.7341783813638,0.2427999999999999,10.505576612649973,10.505576612649973,3.0,-1.0
Rb2Ni(PS3)2,mp-1209542,14,-4.577621088181818,2.8092654686525904,-0.9952832928084422,572.1391082445898,0.8138000000000001,5.966893,12.664328999999999,3.0,-1.0
RbCoBr3,mp-1209578,158,-3.464960497,4.242787622991495,-0.8650341995,902.0031510365924,0.0,6.2436370000000005,12.915757534829964,3.0,-1.0
Rb2(NbBr3)3,mp-1209652,12,-4.531912738928571,4.075261141281836,-1.1749611585714288,952.489971643807,1.1183999999999998,10.508795289935948,10.601969965905626,3.0,-1.0
Rb3LiPb4,mp-1209665,63,-2.696700353125,5.390038130385539,-0.2340611826041665,672.9260159941381,0.6909000000000001,9.231631063616547,10.601399,3.0,-1.0
Nb4VSe8,mp-1209978,194,-6.813808756923077,6.432502136737863,-0.8556227529807697,544.304012759933,0.0,6.984156415697818,12.884958000000001,3.0,-1.0
NaCr(PS3)2,mp-1210128,43,-5.138529336,2.2667996380744717,-0.8753082749226188,482.4902482790585,0.6566000000000001,6.945432811567109,11.887844339285106,3.0,-1.0
Nb6HSI9,mp-1210167,2,-5.368061322352942,5.369838935914273,-0.6011983633379404,1071.5909567728115,0.0,10.55066,11.838526391990941,1.0,1.0
NaFeBr4,mp-1210192,62,-3.595396639583333,3.1076288507246304,-0.8733364301388894,851.6371809998897,1.016,7.681931,14.286872,3.0,-1.0
Na5AgGe2Se7,mp-1210225,15,-3.6017985836666666,3.775613549106419,-0.726915040982639,809.9624915798431,1.1561,7.332960187927724,15.468126639565149,3.0,-1.0
Nb3Se5Br7,mp-1210250,11,-4.731046711333334,4.2443495300824186,-0.7815828254479167,964.6664699060848,0.9691,8.625029,13.239192000000001,1.0,1.0
Na3Sr3GaSb4,mp-1210275,186,-3.320901175,4.010372691620857,-0.7248556411363632,735.8629009874937,0.2935000000000003,7.995537,10.308828925569578,3.0,-1.0
Na8Zr6BBr20,mp-1210285,225,-4.331003521142857,3.8720954034583617,-1.4389651187380952,1003.5692124145572,0.0,11.237958977943373,11.237958977943373,3.0,-1.0
Na(SrAs)4,mp-1210697,62,-3.9426568772222215,4.3082642775834445,-0.9749845605555554,1037.8213080644448,0.0,7.829981,15.944529999999999,3.0,-1.0
Mn(SbSe2)2,mp-1210700,12,-4.796248372142856,5.363738991887402,-0.3100548205757393,380.3562790066196,0.3917999999999999,6.950856333198449,15.652254467097864,3.0,-1.0
Li(YGe)4,mp-1210940,62,-5.9516281783333325,5.286535495798268,-0.8108594294444439,820.6044071106113,0.0,7.176361999999999,14.749354,3.0,-1.0
LiFeBr4,mp-1211043,14,-3.670705442916667,3.325535042497921,-0.8496001251388895,763.7790034159532,0.9341,7.328961,13.845710285876017,3.0,-1.0
Li8CaSn7,mp-1211196,63,-3.1809369434375,4.286651371689523,-0.34693783104166664,717.8636715528082,0.0,11.562064,13.643202212051616,3.0,-1.0
Li4(AlCu2)3,mp-1211199,194,-3.539121415384616,4.483684689288153,-0.19545534025640984,362.93301289126464,0.0,4.9036262713622465,17.428545,3.0,-1.0
CdP2,mp-12112,92,-4.038119942083333,4.023006343452712,-0.12163278113095248,575.7468240991689,1.5913999999999997,5.3633489999999995,20.015176999999998,3.0,-1.0
KHg5Br11,mp-1211303,12,-1.8241842176470588,5.1470101344330725,-0.6103611169411766,619.7545132945697,2.1405,6.990652792468025,10.150550953122544,1.0,1.0
KP15,mp-1211471,2,-5.2455109784375,2.0743911219785134,-0.10115554916071544,806.4259177878108,1.5233999999999996,7.4738089999999975,12.501176208771279,2.0,1.0
KFeBr4,mp-1211520,52,-3.652083375,3.1855046571324768,-0.9640653771666668,864.4054706132813,0.9866,7.843048,10.526089,3.0,-1.0
K2Rb4Fe2O5,mp-1211726,12,-4.526028721923077,3.4576080780491667,-1.5379312382500006,587.598548851854,0.9985000000000002,6.977577483509733,12.035099000420935,3.0,-1.0
K6Na4Tl13,mp-1211780,204,-1.9787780969565216,5.971484472990231,-0.12562630179710138,829.6548529530754,0.0,10.252736191339363,10.252736191339363,3.0,-1.0
K2BaAs5,mp-1211972,36,-3.9614094075,3.8729264405788766,-0.531989313875,506.0445073099274,0.0,6.686112176531665,11.861852,3.0,-1.0
K2CoI4,mp-1211977,11,-3.086193413571429,3.553386330510373,-0.8825982494285718,602.596285827016,0.5805,7.888,9.827435977610946,3.0,-1.0
K(SiAs)3,mp-1211981,55,-4.7378023678571415,3.1500399291153416,-0.2572743361428569,734.0430072726216,1.4137,3.717575,19.450098,3.0,-1.0
K2FeI4,mp-1211993,11,-3.2975245992857145,3.5081257019946994,-0.8994029944285715,607.4472379301596,0.0,7.9492910000000006,9.783401083846508,3.0,-1.0
InSbSe3,mp-1212011,62,-3.8535854155,5.4590429091962624,-0.3799015349062501,576.0683830272766,1.1027,4.08704,14.103916,2.0,1.0
In5CuSe8,mp-1212167,111,-3.767012356428572,5.175092722516717,-0.4938039891964289,407.28715771403984,0.4937,5.88274,11.76905,3.0,-1.0
K3LiPb4,mp-1212210,63,-2.75162674,5.100470798915546,-0.2402882415416663,620.5518691171687,0.6089000000000002,8.959774244603489,10.358398,1.0,1.0
Hg3S2BrCl,mp-1212237,12,-2.159841656071429,6.302458714371152,-0.6244418924300003,823.366135883785,1.6393,9.491155223361222,10.239368262857724,3.0,-1.0
Hg3BI2(OF2)2,mp-1212477,14,-3.593482380208333,5.995684045702897,-1.5258165828272223,1079.4431129436466,0.1572,7.666612,13.442784,2.0,1.0
Sc7(Mn3Ge4)2,mp-1212513,139,-6.988553237380952,5.811832333818582,-0.4989463137110022,700.2577852726148,0.0,9.965831414455597,9.971169999999999,3.0,-1.0
GaCuBr4,mp-1212660,112,-2.955022445833333,3.9352244819204887,-0.6758543904166666,382.2060157595532,1.5825999999999998,5.929348,10.871354,3.0,-1.0