pretty_formula,task_id,spacegroup.number,final_energy_per_atom,density,formation_energy_per_atom,volume,band_gap,min_abc,max_abc,Dimension,Dim
Y2Nb3Ge4,mp-1197535,62,-7.556837397777778,7.194323278401973,-0.69806309037037,689.7513376099333,0.0,7.028467,13.626197,3.0,-1.0
Ta4CrTe4,mp-1197597,55,-8.090246971944445,8.680189835538789,-0.3505401152777792,984.2018805823527,0.0,4.850781,18.777723,1.0,1.0
Ga4Cu9,mp-1197621,215,-3.8776879336538466,8.454861321459232,-0.10805393057692324,668.3949256562585,0.0,8.743347,8.743347,3.0,-1.0
HfMnGe2,mp-1197660,55,-7.5262591431249986,10.064091670126675,-0.4350213855387928,749.8256464712372,0.0,8.076995,10.082719,3.0,-1.0
HfMnGa2,mp-1197835,62,-6.6546201554166675,9.720356781260158,-0.3608485740804603,764.3817187912679,0.0,8.43815,10.056344000000001,3.0,-1.0
Tl2Mo9Se11,mp-1198146,148,-6.906798173636362,6.941399605607607,-0.5072927425355105,1024.2487061779284,0.0,13.519083272791688,13.519083811898241,3.0,-1.0
BaGe2Au5,mp-1198185,62,-3.79558474875,11.974674158655324,-0.3537804687500001,703.028190764327,0.0,7.267403999999999,10.502125999999999,3.0,-1.0
Y3Ge13Os4,mp-1198205,223,-6.56116287425,8.70959116088354,-0.34075721150000005,751.9325509005043,0.0,9.0934,9.0934,3.0,-1.0
Nb3Ge,mp-1198302,86,-9.049795963125,8.196948021040576,-0.31806021937499906,569.4271349573958,0.0,5.306278,10.359149,3.0,-1.0
Cu3TePbO7,mp-1198524,62,-5.282763626458333,6.947992468715477,-1.2099947688541672,609.375287631525,0.0,6.420676,10.666542999999999,3.0,-1.0
Y7Co6Sn23,mp-1198642,164,-5.4222319769444445,7.5377862625601875,-0.4184720539351853,816.4739767431323,0.0,9.720876378419797,9.977021,3.0,-1.0
Y5Ir3,mp-1198712,130,-8.1353278021875,8.838107498038427,-0.7793719488541679,767.4537561538866,0.0,6.401502,10.94927,3.0,-1.0
Bi3Pd8,mp-1198800,146,-5.083392205909092,12.211309198643615,-0.2552869868181818,804.0994965795564,0.0,15.290842842826553,15.29084289295842,3.0,-1.0
ZrMnGe2,mp-1198917,55,-7.220393465,7.493226321901535,-0.481527762413793,775.0214082675418,0.0,8.138502,10.202303,3.0,-1.0
Y5(Ge5Rh2)2,mp-1198948,127,-6.498512443421053,7.087856856486702,-0.8132563593859653,741.5184106368225,0.0,4.317926,13.104588,3.0,-1.0
Sb3Pd8,mp-1198995,167,-5.34531608,10.723096529426504,-0.4520380618181816,753.6174814594431,0.0,15.274890343383875,15.274890681846236,3.0,-1.0
Ga5Pt,mp-1199016,11,-3.840971119583333,8.262697382171481,-0.3057402491666667,874.1294889191106,0.0,6.490883999999999,15.836818,3.0,-1.0
Ti9Ni2(B4Ru9)2,mp-1199093,127,-8.715665358243243,8.779337989014635,-0.5266423996846838,928.2840207325943,0.0,2.994137,17.607779999999995,3.0,-1.0
Be17Os3,mp-1199166,204,-5.1351146263750005,6.5944187885005165,-0.2725135236250004,729.1374377868681,0.0,9.82072981096634,9.82072981096634,3.0,-1.0
Cd41Ir8,mp-1199295,148,-2.27383241122449,9.507103309130043,-0.05860948224489805,1073.5812484496566,0.0,10.277507737712536,10.277508130222474,3.0,-1.0
TiFeGe2,mp-1199430,55,-6.824221529583332,7.2488026432259645,-0.4213338779166662,684.4621882328354,0.00019999999999953388,7.773026,9.937878,3.0,-1.0
Sc2Ge4Mo3,mp-1199518,62,-7.6197801730555526,7.366482019991747,-0.5426714263888878,602.5805417727006,0.0,6.734336999999999,12.908211999999999,3.0,-1.0
Ta4CoTe4,mp-1199549,55,-7.838804280833332,9.086616443309037,-0.3818451658333338,945.251346588818,0.0,4.813692,18.458264,1.0,1.0
Hf2TiNi3,mp-1199653,70,-7.9352685083333325,10.567242459891695,-0.4102218822222229,730.2963391722445,0.0,7.716665485116872,14.521844439290009,3.0,-1.0
Tl2(ReS2)3,mp-1199667,15,-6.589485422954545,7.713542179598567,-0.8717739032954548,998.6882646269856,1.4268999999999998,9.754876684199038,11.998149075113584,3.0,-1.0
Ga16Rh3,mp-1200062,68,-4.005056708421053,7.128488462297876,-0.29229609526315786,663.5572370528778,0.0,6.583489999999999,15.658939140972734,2.0,1.0
ZrGa2Ni,mp-1200150,107,-5.6843048757500005,7.662448906935159,-0.5882977969999998,627.0831113918558,0.0,9.674437415983835,9.674437415983835,3.0,-1.0
Ti9Co2(B4Ru9)2,mp-1200174,127,-8.78975323,8.783908423453804,-0.5289366976576583,927.982343475952,0.0,2.992357,17.610154,3.0,-1.0
Ga21Rh4,mp-1200191,64,-4.0217966248,7.117549709981067,-0.2999071435000002,875.2583714183568,0.0,6.5712160000000015,20.549065913891198,2.0,1.0
Ca3Sn13Ir4,mp-1200211,223,-5.1125593682499995,8.448886780919485,-0.4378115964999999,956.0981023115927,0.0,9.851465,9.851465,3.0,-1.0
Nb2Co4P3,mp-1200248,189,-7.969624037500001,7.700887521131835,-0.7612086103571443,443.7370423595772,0.0,3.607217,11.918219750678412,3.0,-1.0
AgPd3Se,mp-1200271,205,-4.542817001,9.94805670551939,-0.1691944188020834,675.813781221423,0.0,8.775577,8.775577,3.0,-1.0
Y3Co4Ge13,mp-1200302,223,-5.81058294925,7.0103397955407445,-0.4139806174999997,685.3929262860968,0.0,8.816844999999997,8.816844999999997,3.0,-1.0
Ni5Ge2,mp-1200317,185,-5.728773670476191,8.772595160120266,-0.27923951190476193,498.2948743597753,0.0,6.798219809028022,12.449886,3.0,-1.0
Y15Ni32,mp-1200338,216,-6.421164065319148,7.16393522110405,-0.4219844810638298,744.4624036735556,0.0,10.173083035534118,10.173083035534118,3.0,-1.0
Hf3(VGa2)2,mp-1200384,62,-7.0977349020833325,9.887399505231365,-0.4142059354166676,1231.0299518266024,0.0,5.3801830000000015,16.769928,3.0,-1.0
Y3Ge13Ir4,mp-1200412,223,-6.26022128825,8.908174726905774,-0.5175964315000001,738.1333695719136,0.0,9.03743,9.03743,3.0,-1.0
Ca3Co4Sn13,mp-1200470,223,-4.6139596385,7.0424896835269495,-0.2852343917500001,895.6180527257869,0.0,9.639199000000001,9.639199000000001,3.0,-1.0
Hf2(NiP)3,mp-1200507,62,-7.6857241415625,9.3801904087816,-0.9988934760267858,443.2603890420762,0.0,3.6044699999999996,12.298813,3.0,-1.0
Sc(BRu)4,mp-1200617,142,-8.26378640138889,7.992491894244693,-0.4696092004629627,409.2751768597257,0.0,9.136312933530846,9.136312933530846,3.0,-1.0
Zr5Ge4,mp-1200749,92,-7.648081045833332,7.018670523122232,-0.8446794269444445,706.6245985841357,0.0,7.304775,13.242655,3.0,-1.0
Y3Ge13Pt4,mp-1200879,9,-5.7048990825,8.690568368743987,-0.5157787677499996,760.9982306477938,0.0,9.10970153133268,9.170475688781087,3.0,-1.0
Zr3As,mp-1200894,86,-8.3213268215625,6.890720281722445,-0.7457717478125012,672.0380656891679,0.0,5.495889,11.058035,3.0,-1.0
Sc2Nb3Ge4,mp-1200971,62,-7.5439817844444415,6.751090540490721,-0.7149857011111102,648.5543877728229,0.0,6.869261,13.385394,3.0,-1.0
HfCrGe2,mp-1200972,55,-7.626251999583332,9.894068457730127,-0.4121789920833336,756.7858964627452,0.0,8.167337,10.001923,3.0,-1.0
ZnNi13Ge8,mp-1200997,152,-5.413733033030304,8.596772788818502,-0.25983561075757633,816.7954209647282,0.0,7.879319753575243,15.191659,3.0,-1.0
ZrGa2Co,mp-1201034,107,-5.96650108525,7.74710521953893,-0.53844872775,620.7446594333185,0.0,9.626450463765917,9.626450463765917,3.0,-1.0
Re4Ge7,mp-1201064,116,-7.436645635681819,11.962357866004078,0.03056379386363517,695.9052453686568,0.7029000000000005,6.023333,19.181226000000002,3.0,-1.0
Y4Ga21Ni10,mp-1201076,12,-4.715566628857141,7.28214926545326,-0.508216434404762,548.8058966772302,0.0,10.633204822982107,15.506869311123381,3.0,-1.0
CuTePb3CO10,mp-1201121,29,-5.8237621684375,6.836895918643018,-1.4447694060937497,956.7014198667239,0.05249999999999977,9.523735,10.492619,3.0,-1.0
Ti9Cu2(B4Ru9)2,mp-1201135,127,-8.617422872837839,8.80513241143152,-0.5192609959009007,929.2251965102524,0.0,2.994956,17.614295000000006,3.0,-1.0
Ca3Ge13Rh4,mp-1201179,223,-5.228268391,6.596324572753466,-0.4495987292499997,743.2162835959758,0.0,9.058127,9.058127,3.0,-1.0
Ag2(RhS)15,mp-1201221,221,-5.91188554171875,7.083189685641985,-0.6548674773502601,1050.4012194270365,0.043600000000000534,10.165258,10.165258,3.0,-1.0
HfZn22,mp-1201271,227,-1.6875297234782607,7.602569084706199,-0.049636320434782735,706.5774697555403,0.0,9.997504179124807,9.997504179124807,3.0,-1.0
ZrFeGe2,mp-1201558,55,-7.073095851875,7.712726376805956,-0.5071560468750013,755.3079083028232,0.0,7.988780999999999,10.240362,3.0,-1.0
Y5P12Ru19,mp-1201667,189,-8.458708856944446,8.385997401955455,-0.8613424861441799,541.8722014703479,0.0,3.972344,12.55046120219034,3.0,-1.0
ScFeGe2,mp-1201682,55,-6.536784043958334,6.552361401857576,-0.5246521202083336,748.3597613612317,0.02590000000000004,8.046818,10.048853999999999,3.0,-1.0
Y(FeSn)6,mp-1201703,71,-6.3673272148717945,8.248132490293505,-0.11010263615384676,686.2513496298062,0.0,15.067913025577266,15.067913025577266,3.0,-1.0
TiCoGe2,mp-1201705,55,-6.535499601666667,7.39643913011456,-0.4730332212500012,679.119783479642,0.0,7.741528,9.933367,3.0,-1.0
Y2B6Os,mp-1201886,55,-7.7798193241666675,7.400709929404184,-0.6424162906481475,388.53577829111146,0.0,3.6645559999999997,11.557414,3.0,-1.0
ZrCrGe2,mp-1201972,55,-7.328813034375,7.393696457992616,-0.4671120818750012,777.5255954687747,0.005100000000000549,8.20717,10.115777,3.0,-1.0
Zr2V3Ge4,mp-1202025,62,-7.594089159166668,7.155485255742612,-0.6119523936111114,580.9357594938358,0.0,6.6695009999999995,12.85345,3.0,-1.0
Y5(Si5Ir2)2,mp-1202645,127,-7.314878610526316,7.223542525878477,-0.8970250607017543,686.9937368239403,0.0,4.285216,12.661642,3.0,-1.0
Sc2Si4W3,mp-1202662,62,-8.731055320555555,8.85082874158442,-0.5932137983333329,565.6739809015471,0.0,6.5803160000000025,12.662282000000001,3.0,-1.0
TaTlSe3,mp-12027,62,-5.57484866,7.495276937329653,-0.6334156514062499,551.390418635224,0.3226,3.6507129999999997,15.345726,1.0,1.0
Pd2(RhS)15,mp-1202732,221,-6.0952042546875,7.27794458771336,-0.6914783274023444,1020.9712128161366,0.0,10.069421,10.069421,3.0,-1.0
Ca3Ge13Ir4,mp-1202780,223,-5.501302724249999,8.063156381582537,-0.4278085524999993,755.1556022199768,0.0,9.106374,9.106374,3.0,-1.0
Hg3Pd8Se9,mp-1202782,59,-4.0061561145,8.662627512025942,-0.31549117080468675,829.5461420103876,0.0,6.573886999999999,17.094488000000002,3.0,-1.0
Y(Ni2B)6,mp-1202784,36,-6.4946853678947365,7.393925316878692,-0.3944505311403504,385.42352188345683,0.0,6.034064964431857,10.954680999999999,3.0,-1.0
ScGe2Os,mp-1202831,55,-7.22688312875,9.458252626783407,-0.5254183124999999,801.5584298476767,0.0,8.203999000000001,10.415318,3.0,-1.0
Ag3SbO4,mp-1202934,91,-4.7088202484375,7.2392596667329325,-1.0076538578124996,467.3493539877608,0.0,7.2827720000000005,8.811467,3.0,-1.0
MnBiO3,mp-1202955,31,-6.6326746665,8.086361330838724,-1.8110972593730343,1024.8362710580611,0.0,5.670855,15.845744,3.0,-1.0
Ga40AgMo8,mp-1203027,148,-4.44494691877551,6.94903410787611,-0.1445077280952379,875.62196755751,0.0,9.600427123946726,9.600427313286684,3.0,-1.0
HfCrGa2,mp-1203073,62,-6.713471405625,9.500408356292004,-0.29686457437500025,775.9077475433484,0.0,8.541692,9.991767999999999,3.0,-1.0
HfMnSi2,mp-1203090,55,-8.150188652083333,8.383714059282257,-0.6578078119971273,688.3209868162721,0.0,7.843528,9.777365,3.0,-1.0
CuTe2PbO7,mp-1203135,57,-5.399355078636364,6.790500197644813,-1.4158901803409099,624.0054489561969,0.0,5.554474,15.449796,3.0,-1.0
YCo3P2,mp-1203265,59,-7.3634463183333345,6.917169195484719,-0.9271136148015882,471.9391907271064,0.0,3.690875,12.153453,3.0,-1.0
Sc(Ga5Mo)8,mp-1203283,148,-4.5246174061224504,6.7672397132642965,-0.15275141744897974,883.7072217861265,0.0,9.630975259673132,9.630975273191444,3.0,-1.0
Y5Zr3(Ni4As3)4,mp-1203300,189,-6.565027278888889,7.550826428708214,-0.8326088012037041,562.1804628402244,0.0,3.939396,12.836828734379687,3.0,-1.0
Zr3Ge,mp-1203324,86,-8.1134623134375,6.760947762081529,-0.5469298771875009,680.4544279517769,0.0,5.485485,11.13761,3.0,-1.0
Hf2(NiAs)3,mp-1203331,62,-7.1086396675,10.138629718884987,-0.7046217981250003,496.4765665727614,0.0,3.74988,12.724039999999999,3.0,-1.0
Ga40SnMo8,mp-1203338,148,-4.460339096122449,6.910054342865617,-0.13587917377551015,883.1667375982129,0.0,9.61870336195191,9.61870373757613,3.0,-1.0
Na2Cd11,mp-1203422,200,-1.053273135897436,6.801820509982637,-0.0701122287179486,939.2965798298565,0.0,9.793417,9.793417,3.0,-1.0
Hg3AsO5,mp-1203433,14,-4.048663146666667,8.291578978466871,-1.071053497361112,606.1624618490663,1.371,7.198157000000001,10.76909962262816,3.0,-1.0
HfFeGe2,mp-1203443,55,-7.373934798125,10.323536975826233,-0.4556229381249999,732.7320540354729,0.0,7.919212,10.152261,3.0,-1.0
Bi2AsO6,mp-1203464,14,-5.8022943569444445,7.434161399514843,-1.5897188194444452,526.1420624827127,0.0,7.093486,10.90730737270317,3.0,-1.0
Ca13(Ge11Au25)2,mp-1203630,204,-3.7755839808235296,11.899547515102755,-0.3464841190588238,1670.0107696960001,0.0,12.94534773576979,12.94534773576979,3.0,-1.0
Sr6Sn12Pt11,mp-1203634,72,-5.099592193275861,9.675360041861646,-0.7881530694827583,1406.0128647970748,0.0,14.89967319654797,14.89967319654797,3.0,-1.0
Zn10Ni(B4Rh9)2,mp-1203945,127,-5.9116233493243255,9.532600830288773,-0.3881031167117113,923.784875802212,0.0,2.87947,17.911383999999995,3.0,-1.0
Nb10Ge7,mp-1204207,164,-8.302058088235292,8.232736749381383,-0.4565142420588241,869.8556916791928,0.0,5.4661480000000005,13.555564184787473,3.0,-1.0
HfGe2Ru,mp-1204281,55,-7.682308045,10.739442448655543,-0.5628994912500005,788.2682034123583,0.0,8.078643,10.48103,3.0,-1.0
Ga40CuMo8,mp-1204344,148,-4.463795619795918,6.8718395628360724,-0.1375064155102044,874.7480377822176,0.0,9.597311342077267,9.59731154141794,3.0,-1.0
TiMnGe2,mp-1204392,55,-6.9667644072916675,6.961323028945447,-0.3909508580387933,710.1320953194581,0.0,7.967392999999999,9.911978999999999,3.0,-1.0
HfCrSi2,mp-1204660,55,-8.217769997291667,8.11245154350617,-0.6025539072916667,704.1106783302182,0.0,7.996178,9.724962,3.0,-1.0
Y2(Ni5B3)3,mp-1204725,64,-6.552705872692307,7.435954611472732,-0.4084936279166665,1032.1592425015383,0.0,9.821214401998192,11.24512593,3.0,-1.0
Ga40GeMo8,mp-1204805,148,-4.473137070204082,6.825094955222865,-0.13615763765306138,882.9516886362422,0.0,9.618232322800537,9.618233012093487,3.0,-1.0
Hf3(CrGa2)2,mp-1204826,62,-7.161167289166666,10.260609858327197,-0.35116245583333394,1188.984317409614,0.0,5.258488,16.709179000000002,3.0,-1.0
Ga3Ni27B14,mp-1204832,11,-6.198632862954545,7.910420958944423,-0.3200087343371197,816.6834612886491,0.0,8.644925,10.71584,3.0,-1.0
SiAg5O4,mp-1205049,58,-4.7999763792499985,7.070107203563977,-1.1429007880833324,593.2042360626177,0.7149000000000001,6.396256,10.047005,3.0,-1.0
Hf2Co7,mp-1205422,12,-7.996420387222222,11.054054496920994,-0.2550201355555559,231.19215572352746,0.0,4.751111320908615,12.069125371200226,3.0,-1.0
Ge2Bi2Te5,mp-1206551,164,-3.7945308677777785,6.961716423132968,-0.1564609811111105,286.5252123981464,0.5866999999999996,4.359449613295353,17.408801,2.0,1.0
Zr5Sb3O,mp-1207400,193,-7.7603348044444465,7.757332175994217,-1.1635378779166679,358.50841152594637,0.0,5.817309,8.435742111049269,3.0,-1.0
Zr3Bi5,mp-1207419,118,-5.93328932125,10.142938701394488,-0.2966301412500005,863.4750553710837,0.0,7.067837,17.285293,3.0,-1.0
Zr9Mo4S,mp-1207420,194,-9.163118393214287,7.136657010176482,-0.3213421320089296,575.5699893504677,0.0,8.654439,8.763231539918195,3.0,-1.0
Zr9W4S,mp-1207423,194,-9.758544643928571,9.106241449763733,-0.3132016855803548,579.3099930504495,0.0,8.686157000000001,8.775590975840316,3.0,-1.0
Zr9Re4O3,mp-1207437,194,-10.0177647021875,9.739154245681052,-1.302489026171877,550.3245872948572,0.0,8.557372396956907,8.677756,3.0,-1.0
Zn3(SnPt)2,mp-1207463,194,-3.8719364821428566,10.390271879500935,-0.4519093450000002,263.31880570901586,0.0,4.416774944466266,15.586214000000002,3.0,-1.0
Zn11(B4Rh9)2,mp-1207530,127,-5.827055009324325,9.560684786440136,-0.4257075623873878,923.4040974672577,0.0,2.882068,17.899619,3.0,-1.0
Zn17Co3,mp-1207538,171,-2.222359856166667,7.615494369969988,-0.08533011841666678,843.027613419142,0.0,7.689209,11.25161215109906,3.0,-1.0
Zn10Si(B4Rh9)2,mp-1207540,127,-5.9655136785135126,9.496327274818157,-0.4515832475225229,916.6092316309607,0.0,2.874803,17.85616,3.0,-1.0
Zn10Ge(B4Rh9)2,mp-1207543,127,-5.921434833108107,9.59845316115726,-0.4291878119819822,922.2725863992813,0.0,2.880888,17.892312,3.0,-1.0
Zn10Cr(B4Rh9)2,mp-1207569,127,-6.004989418243244,9.427473494398374,-0.3767959210360361,931.7268537236496,0.0,2.869107,18.020670000000006,3.0,-1.0
Zn10Cu(B4Rh9)2,mp-1207585,127,-5.8784315059459455,9.582237500330548,-0.4003418141441433,920.6814522730432,0.0,2.878565,17.884083,3.0,-1.0
YSiIr2,mp-1207633,194,-8.375313607499999,12.185033176253974,-0.9831521141666664,409.9962818063763,0.0,5.581584400660802,15.196176000000001,3.0,-1.0
Zn10Sn(B4Rh9)2,mp-1207643,127,-5.892478503108107,9.594940453292017,-0.4168113738738739,938.5563501730376,0.0,2.8990009999999997,17.9931,3.0,-1.0
Zr54Os17,mp-1207654,71,-9.442885042535213,9.114984913738754,-0.2535819485915502,1486.5640343811056,0.0,12.458141461078212,12.458141461078212,3.0,-1.0
Zn10Co(B4Rh9)2,mp-1207661,127,-5.931208438648647,9.533010444759572,-0.371791419144144,923.8287215821301,0.0,2.878695,17.91422,3.0,-1.0
YGeRh2,mp-1207662,194,-7.315680385416666,8.606412209512634,-0.8611517083333323,425.2715667979793,0.0,5.605336543216653,15.629042000000002,3.0,-1.0
YCu5Sn,mp-1207691,62,-4.6786420985714265,8.076838647141336,-0.2540597673809515,432.0290873756355,0.0,4.997637999999999,10.533373,3.0,-1.0
Y5SbPt2,mp-1207703,140,-7.06867831125,7.6081333880450215,-0.9932817829166672,417.5096697577523,0.0,8.815624776786498,8.815624776786498,3.0,-1.0
Y2(Al3Ir)3,mp-1207707,63,-6.0967215875,6.9985946102875385,-0.8711204477380962,473.2521227929672,0.0,7.56752424187204,9.500053999999999,3.0,-1.0
Y2(Ga3Ir)3,mp-1207736,63,-5.439932538571428,9.629399617933622,-0.6755687522023806,476.6267403491407,0.0,7.602181529855231,9.516836,3.0,-1.0
Y2OsC2,mp-1207742,62,-8.901020175,7.9706335258100545,-0.3782525596666659,326.7173641915183,0.0,5.143372,9.837363,3.0,-1.0
Y4Si5Ir9,mp-1207756,194,-8.334588399444447,12.160222175686526,-0.9713479364814837,607.943898548922,0.0,5.559929460238231,22.708804999999998,3.0,-1.0
Y3Tl5,mp-1207757,63,-4.220279751875,9.744721387352488,-0.31931997187500016,439.17667781722804,0.0,6.521354659055202,10.588845,3.0,-1.0
Y5BiPt2,mp-1207770,140,-6.968699765,8.139487997034639,-0.9231741029166676,425.8418985060656,0.0,8.896784951092107,8.896784951092107,3.0,-1.0
Y2(Ga3Rh)3,mp-1207775,63,-5.161923114642859,7.779207833374968,-0.7134427318452384,475.60086085654183,0.0,7.5807874811822815,9.542045,3.0,-1.0
Y5(Co2Ge5)2,mp-1207788,127,-6.2398816836842075,6.7916558524262856,-0.6085182470175439,687.8491210603382,0.0,4.19983,12.797665,3.0,-1.0
Y4CdIr,mp-1207802,216,-6.456406589166666,6.8511240813881775,-0.5185391502777771,640.1129102044788,0.0,9.673653515982057,9.673653515982057,3.0,-1.0
Y3(SbPd2)4,mp-1207804,225,-5.996482723,9.107905125975863,-0.8395178709999992,585.2850598231718,0.0,9.389175972629333,9.389175972629333,3.0,-1.0
Y4CdPt,mp-1207813,216,-6.086108141666667,6.744932862107254,-0.6094944877777783,653.0140664067447,0.0,9.738210950890826,9.738210950890826,3.0,-1.0
Y3(Al3Os)4,mp-1207814,194,-6.3455072244736845,6.9082902572092255,-0.5952092718421055,649.6771275079494,0.0,8.85199701078333,9.573801,3.0,-1.0
Y3(GeRh)2,mp-1207848,57,-7.092960316785714,7.001929514899053,-0.896662489642857,586.0643017165762,0.0,5.6152809999999995,13.237862,3.0,-1.0
Y2(Ga3Ru)3,mp-1207878,63,-5.401767822857144,7.704191013457657,-0.5439842004166664,477.85814489331483,0.0,7.49294471267592,9.765061,3.0,-1.0
VZn10(B4Rh9)2,mp-1207904,127,-6.021393701216216,9.455458217455693,-0.4085824040090091,928.598869200256,0.0,2.8840790000000003,17.943638,3.0,-1.0
Y2Fe14C,mp-1207957,136,-8.34737861514706,7.271850916378571,-0.0685690124019616,887.5136676532236,0.0,8.700453999999999,11.724416,3.0,-1.0
TiZn10(B4Rh9)2,mp-1208284,127,-6.0191649348648655,9.455878829650867,-0.4384729363963961,927.4777428702432,0.0,2.898843,17.887078,3.0,-1.0
TiMnSn4,mp-1208338,180,-5.622020603888887,7.760244839621934,-0.10610628605363973,370.8138790749077,0.0,5.5280610251192055,14.011339000000001,3.0,-1.0
Ta4CrSe8,mp-1208377,194,-7.266989095384615,8.953306065616795,-0.7245698791346157,522.0764153165395,0.0,6.89655316638892,12.674745,3.0,-1.0
Ta3CoS6,mp-1208409,182,-7.720715977,7.7254124987129975,-1.3687569883750017,341.4044376621366,0.0,5.768456487907662,11.847298,3.0,-1.0
Ta6Nb3Te2S3,mp-1208430,11,-9.103837469642855,10.634744280139005,-0.6641123010267843,535.8201783485694,0.0,3.4397330000000004,13.653270960069495,3.0,-1.0