pretty_formula,task_id,spacegroup.number,final_energy_per_atom,density,formation_energy_per_atom,volume,band_gap,min_abc,max_abc,Dimension,Dim
TiBe2,mp-2749,227,-5.318555258333333,3.293295583039766,-0.19378267611111136,66.44722972152339,0.0,4.546361434415218,4.546361434415218,3.0,-1.0
K2AgBi,mp-27549,63,-2.56892477375,4.407316797226566,-0.33307772191666674,297.68134121223596,1.2598,6.484684,6.871113806854098,3.0,-1.0
IBr,mp-27639,63,-1.66736051,3.4148139365621115,-0.08689093250000003,201.1316283220445,1.4375,5.008675269692077,8.816360000000003,1.0,1.0
Mg2Ga5,mp-27668,139,-2.7444496478571425,4.8723086108535565,-0.1243014174999999,270.7577386460467,0.0,7.108994021856188,7.108994021856188,3.0,-1.0
Sc(BC)2,mp-27693,55,-8.0880685625,3.234134675775896,-0.4591057531666664,186.0697986511516,0.0,3.451247,10.203186,3.0,-1.0
Li2Si,mp-27705,166,-3.294148488333333,1.388555732487856,-0.21309523722222204,100.37576691671606,0.0,6.6356692028053965,6.635669603007747,3.0,-1.0
CrB4,mp-27710,71,-7.577150659999999,4.253212703060286,-0.30302774933333154,37.18363453656999,0.0,3.8993103934356137,3.8993103934356137,3.0,-1.0
ZrAl2,mp-2772,194,-5.8841043325000015,4.5208761480108866,-0.5378202358333333,213.3115845362367,0.0,5.29295345868004,8.791999,3.0,-1.0
CrBr3,mp-27734,148,-4.45784914,3.9426479797871865,-0.8168923675000004,245.71947512281108,1.2905,7.776747068960452,7.776747345025424,2.0,1.0
SrAl4,mp-2775,139,-3.5666665780000004,2.8971803754498278,-0.23230966333333355,112.07863737313193,0.0,6.449161501491648,6.449161501491648,3.0,-1.0
Be4B,mp-27757,129,-4.344125785,1.9817672817221923,-0.016717138833332968,78.5283011904702,0.0,3.346629,7.011502,3.0,-1.0
NClO6,mp-27774,15,-4.907721024375,2.093644398898744,-0.5726815272675001,230.73214978849686,1.4273,5.882016436421868,7.3708860609295135,0.0,1.0
Li4H5Rh,mp-27796,63,-3.5457332655,2.687573019562268,-0.4258650011433332,167.69808794533603,0.0,5.027117891442173,9.292369,3.0,-1.0
Li4H4Rh,mp-27797,87,-3.5832140288888885,2.7666876428825025,-0.47666447531259204,80.84638868636574,0.0,4.895473300550826,4.895473300550826,3.0,-1.0
Ag3P11,mp-27821,8,-4.885407177857141,3.756361828017317,-0.025134857448979427,293.66783371345053,1.0961,6.6812253653727325,7.583356513902402,3.0,-1.0
Na3Bi,mp-27838,194,-2.33372862,3.629908160978065,-0.3752308799999999,254.30194261114,0.0,5.484585302641302,9.761834,3.0,-1.0
PdBr2,mp-27857,15,-3.1566905166666666,4.066309295639091,-0.3387788866666668,217.43648231426724,0.9432,6.645433005340209,7.393539729746232,1.0,1.0
Ca5Zn3,mp-2786,140,-1.926755509375,2.7634368767365305,-0.20085173062499995,476.65139632605667,0.0,9.467757583230467,9.467757583230467,3.0,-1.0
RhBr3,mp-27871,12,-3.5140763875,4.757663080540303,-0.4453045149999997,239.16352798408542,1.3144,6.438652157616918,6.995091326003188,2.0,1.0
K5CuSb2,mp-27999,166,-2.597673325,2.8323070586204486,-0.3590228393750001,294.64191017809446,0.9029000000000004,10.075477542490626,10.075477677957409,3.0,-1.0
MnI2,mp-28013,164,-4.523713016666666,4.463106048543079,-0.4538024498850574,114.8721147808764,1.1837,4.164357291198966,7.648706,2.0,1.0
K4CdP2,mp-28302,166,-2.65805881,2.123003358197054,-0.3450506284489795,258.702444782625,0.947,9.69488129062146,9.694881431601113,3.0,-1.0
Br2O,mp-28460,33,-2.5776539958333333,3.641435812065679,-0.07114781291666716,320.68125977128426,1.4541000000000002,4.347932,10.40958,0.0,1.0
WBr6,mp-28483,148,-3.731054928571429,4.176017946249249,-0.4768141128571429,263.73827834207447,1.1328,7.445155928093983,7.445156028408338,0.0,1.0
Mn4Al11,mp-2856,2,-5.466950553333334,4.0682192693092105,-0.2770732192413798,210.84162657515682,0.0,5.026305000000002,8.77362900032575,3.0,-1.0
Na4HgP2,mp-28591,166,-2.6950223771428568,3.132233467255872,-0.35375652649659833,187.93473133163158,0.041200000000000125,9.079482379200536,9.079482880265152,3.0,-1.0
Li3FeN2,mp-28628,72,-5.539217698333334,3.2621704161968785,-0.5222650557933335,106.5717188674857,0.0,5.817057130919553,5.817057130919553,3.0,-1.0
CaNiN,mp-28645,131,-6.0483475833333324,4.185006622869205,-0.8022780007933341,89.49684327071822,0.0,3.558149,7.0690240000000015,3.0,-1.0
Ca4Ni3C5,mp-28742,12,-6.140921286666668,3.4867482148779465,-0.1828618649999996,188.80444817511085,0.0,5.869426189058178,9.790899612208166,3.0,-1.0
Ca2FeN2,mp-28770,12,-6.476848771999999,3.52061922608248,-0.7996193689519998,154.7184180937484,0.0,5.9773531193361,6.7136993094490025,3.0,-1.0
Na2CS3,mp-28810,15,-4.518539465,1.9116151567994144,-0.8060303426736114,267.8683637878123,1.2757,6.004366144765157,8.628650957975818,3.0,-1.0
CsC8,mp-28861,191,-8.346850702222222,2.8934174156946786,-0.045778705325669,131.41850378006538,0.0,4.976537713433407,6.1273300000000015,3.0,-1.0
Os(SCl6)2,mp-28865,166,-3.04097304,1.975858255682776,-0.8263379796913332,571.3101190694152,0.05410000000000004,8.446281662281281,8.446282471315117,0.0,1.0
Ca5P8,mp-28879,12,-5.006313184615385,2.52220001051722,-0.903675777582418,295.06801807043195,1.1926,6.89475715804364,7.5167178104423344,3.0,-1.0
KC8,mp-28930,70,-8.36141035888889,1.949986489747616,-0.036449853666667316,230.2355922008481,0.0,4.981636772398104,11.55664963082402,3.0,-1.0
Si2NiP3,mp-28945,44,-5.74536287,3.3016828488297008,-0.2669258192857136,104.50314729822719,0.0,6.4258624777846745,6.4258624777846745,3.0,-1.0
Li10BrN3,mp-28989,187,-3.8148794785714286,1.7084921178654051,-0.6303386378909523,185.96383588805102,1.4357,3.878101,7.4411383974487375,3.0,-1.0
KLi2As,mp-28994,59,-2.986521665,2.224353471975493,-0.5896808936666669,190.9643447574384,1.4580000000000002,4.47663,6.712762,3.0,-1.0
Cu4SiP8,mp-28995,88,-5.137635999615385,4.1185519390153935,-0.12775695412088012,427.42433739691313,1.3713999999999995,9.098659479870813,9.098659479870813,3.0,-1.0
KSb2,mp-29055,12,-3.4221436316666662,4.229756375907083,-0.2993431559999997,221.9034319608709,0.2725,7.1846936380300175,7.504762090338174,3.0,-1.0
Ag2TeS3,mp-29163,9,-3.562803966666667,4.95658875316884,-0.3582402104513888,294.5005515056211,1.3064999999999998,6.7798039006604025,8.006664499276212,3.0,-1.0
Li2Ga,mp-29210,63,-2.5809982183333333,2.9811365329437463,-0.2990178063888891,93.13855110554421,0.0,4.380612999999999,5.210475742485901,2.0,1.0
Cd2P3I,mp-29244,15,-3.4871599925,4.956260643140409,-0.21888503928571387,297.9484021833786,1.1350000000000002,6.3083985409599,7.642094577869407,3.0,-1.0
Cd2P3Br,mp-29245,15,-3.591105868333333,4.622674619002375,-0.3040119276190474,285.68260046516764,1.2448,6.178231576608471,7.652393671746116,3.0,-1.0
Cd2P3Cl,mp-29246,9,-3.676422301666667,4.187901940975318,-0.4531742881623805,280.09071814343275,1.3257,6.116391976498891,7.667242851662519,3.0,-1.0
CuClF10,mp-29279,14,-2.73860303875,2.595601844997353,-1.1087231233466668,369.7544098648206,0.0,5.310968,9.377537,0.0,1.0
K4HgAs2,mp-29484,166,-2.4479467914285715,3.0520307986112813,-0.4388735110000001,275.75247194988356,0.8264,10.006166394801657,10.006167381623046,3.0,-1.0
Pd(SeBr3)2,mp-29496,2,-2.6762601911111106,3.713193693003347,-0.2325641905208333,332.6110298683977,1.4073,5.041842,9.368149742494833,0.0,1.0
NaSnP,mp-29529,186,-3.881146003333333,3.651843010887187,-0.3019760256349209,157.03366415445,0.6498999999999997,3.9258582081488886,11.765027,3.0,-1.0
Cl2O,mp-29537,141,-2.649203185833333,1.8770086287350525,-0.39808071175666654,307.5314829975021,1.1474,7.440050542022682,7.440050542022682,0.0,1.0
Na3Hg,mp-29551,225,-1.20418209,3.8438595356288614,-0.14227283624999987,116.44904224127569,0.0,5.481300848927196,5.481300848927196,3.0,-1.0
Ca2Si3Ag,mp-29570,69,-4.3113092825,3.460714044954368,-0.4580263119444445,261.2944805944846,0.0,6.019149219052558,8.421000212443294,3.0,-1.0
K4BeAs2,mp-29584,166,-2.9085695542857146,2.1252262307183187,-0.4086773452857143,246.31852295758569,0.9893,9.300371189716357,9.300371870820275,3.0,-1.0
K4CdAs2,mp-29585,166,-2.52067628,2.501045306546926,-0.4231445145714287,277.9559254727453,0.741,9.974086281268326,9.974086314318722,3.0,-1.0
MgSiP2,mp-2961,122,-4.8829420725,2.2413569226947585,-0.419900624285714,169.41768954993438,1.3714000000000004,6.541069027455528,6.541069027455528,3.0,-1.0
Li7Ge2,mp-29630,65,-2.8309004705555565,2.357757750961366,-0.3188431620370369,273.0761691639263,0.0,4.481466999999999,8.059638846096826,3.0,-1.0
RbMnSe2,mp-29744,119,-4.961288045,4.287148875739331,-0.6777721704606687,115.55038897815884,0.0,7.623570338812255,7.623570338812255,3.0,-1.0
SrLiN,mp-29754,131,-4.474893473333333,3.2711547178089724,-0.6246013707933328,110.2246287767528,0.2610000000000001,3.941535,7.094925999999999,3.0,-1.0
Na3(Mn2Te3)2,mp-29770,12,-4.948823880769232,4.261654042666022,-0.3757017183554384,410.8127975162716,0.0,7.579526787404343,7.930556445743577,3.0,-1.0
Y2B3C2,mp-29896,65,-7.850752287142857,4.5657904573338515,-0.5043695815476192,85.2005834838902,0.0,3.652185,7.076246095013514,2.0,1.0
Sc2C,mp-29941,164,-7.7205350999999975,3.1182969785364856,-0.4232954633333333,54.27524512046594,0.0,3.3251416161856926,5.668273999999999,2.0,1.0
Na2B29,mp-29953,44,-6.3289812816129025,2.3836249172903865,0.004298259919354928,250.44266123173827,0.0,7.2495330281001555,7.2495330281001555,3.0,-1.0
NOF,mp-29966,19,-5.513960791666666,1.639205503006357,-0.9743981949400004,198.56910400479333,0.014600000000000168,4.221279,10.504636,0.0,1.0
SrN,mp-29973,12,-5.5366219375,3.854517960980205,-0.7156452170233331,175.12447187219615,0.0,6.7605126281350145,7.104325258700997,3.0,-1.0
Cs,mp-3,141,-0.79900519,1.7924774413130244,0.09639718206896553,246.2454365756637,0.0,9.990391270159591,9.990391270159591,3.0,-1.0
K5Sb4,mp-30021,12,-2.8817266977777787,3.068937026124156,-0.4297267316666667,369.3038372202971,0.0,6.865530260198188,11.416419116744533,3.0,-1.0
CoBr2,mp-30033,164,-3.78085924,4.346426649084727,-0.3201356149999999,83.56940749218836,0.11960000000000005,3.737885798692224,6.906605,2.0,1.0
Ca(AlZn)2,mp-30175,139,-2.692716828,3.8255478903626834,-0.28946907599999994,97.60360943614435,0.0,6.385648966872044,6.385648966872044,3.0,-1.0
Y(Al2Cr)4,mp-30177,139,-5.987176610769232,4.236139080473062,-0.21461756205128232,200.9917601432402,0.0,6.79386622560917,6.79386622560917,3.0,-1.0
Al4Mo,mp-30180,8,-5.417204886666667,4.181840377895131,-0.2516156166666671,242.85554909852902,0.0,5.238313660222056,9.302822863384426,3.0,-1.0
BaP8,mp-30275,2,-5.336674958888889,3.1304448043585973,-0.3116463231746036,408.56940344908674,0.9220999999999996,6.8599570000000005,8.689974053719782,3.0,-1.0
Ca3BN3,mp-30315,123,-6.47032568142857,2.7586409839279624,-1.248381685186666,104.17497647912134,0.5712000000000002,3.5711019999999998,8.168811999999999,3.0,-1.0
Y3Al,mp-30338,221,-5.971278545,4.455985590050589,-0.1850312525,109.448022348649,0.0,4.783392,4.783392,3.0,-1.0
MgAl2Cu,mp-3034,63,-3.480066995,3.553152022744772,-0.18240740000000025,132.5515001198944,0.0,5.059148063095999,7.131249,3.0,-1.0
Sr3Ag2,mp-30357,148,-2.4141256306666667,4.384992288855804,-0.2674144773333334,543.7145383497303,0.0,8.518850029601706,8.51885008211707,3.0,-1.0
Ca2Ge,mp-304,62,-3.49201505,2.9913276804626734,-0.6139391783333329,339.2790818302724,0.3117000000000001,4.855452,9.100631,3.0,-1.0
BaBe13,mp-30425,226,-3.5710212825,2.837506168794337,0.038360008571428086,297.855135448432,0.0,7.496180408714827,7.496180408714827,3.0,-1.0
Be2Cr,mp-30438,194,-5.931072809166667,4.407724505572409,-0.22044840916666664,105.51631871407923,0.0,4.198814355273283,6.9109169999999995,3.0,-1.0
Be22Mo,mp-30440,227,-4.100370535652174,2.5276154809174853,-0.0519911417391302,386.565035731681,0.0,8.176721188132198,8.176721188132198,3.0,-1.0
Be17Nb2,mp-30441,166,-4.606885364736843,3.3383616246714682,-0.19779963921052668,168.632333824958,0.0,5.561949343829193,5.561949650094291,3.0,-1.0
Be22W,mp-30444,227,-4.181453643478261,3.28221098523202,-0.04122714347826117,386.6328344871442,0.0,8.177199192316277,8.177199192316277,3.0,-1.0
ZrBe13,mp-30445,226,-4.28092994,2.7717755747305075,-0.1980679489285717,249.67898749680182,0.0,7.068039980628432,7.068039980628432,3.0,-1.0
Ca2GaCu2,mp-30472,71,-3.3450468200000003,4.387133937426092,-0.2975050995000004,104.83408356689058,0.0,5.686910998920416,5.686910998920416,3.0,-1.0
LiCaSn,mp-30477,156,-3.2020631288888888,3.6390453793443833,-0.5606982616666668,226.8722565516332,0.0,4.929899447374559,10.778903999999999,3.0,-1.0
Ca3Pb,mp-30479,221,-2.803274105,4.14614050454804,-0.3709124274999995,131.13809050529838,0.0,5.0805370000000005,5.0805370000000005,3.0,-1.0
Ca3Tl,mp-30482,225,-2.2725434975,4.034772301540493,-0.17793034249999984,133.5985448642057,0.0,5.738154558766085,5.738154558766085,3.0,-1.0
CaZn,mp-30483,63,-1.8784874175,3.2706840242371564,-0.2458156724999998,107.11232465159284,0.0,4.339105,6.111251643718249,3.0,-1.0
Ca3Zn,mp-30485,63,-1.93854357,2.2476893502237187,-0.11940775749999988,274.29720562598305,0.0,6.923153647886922,10.145005000000001,2.0,1.0
Mg3Cd,mp-30490,194,-1.51368818125,3.4713815849053447,-0.08275570374999996,177.3017777099851,0.0,5.139525,6.311458898138922,3.0,-1.0
Na2CdSn,mp-30492,194,-2.09743286,4.053196931486319,-0.2069913479166668,227.0485631133873,0.0,5.079010271866851,10.163188,3.0,-1.0
Sc2Co,mp-30562,140,-6.851898131666666,4.415786223151738,-0.2608127966666665,111.94516963817522,0.0,5.272609895682593,5.272609895682593,3.0,-1.0
LiMg2Ga,mp-30648,225,-2.2101426025,2.792612863361596,-0.17574798520833346,74.4902287597581,0.0,4.722856701212943,4.722856701212943,3.0,-1.0
Mg2Ga,mp-30650,190,-2.2130058711111107,3.2116731515779566,-0.13678733694444428,367.09196750877686,0.0,7.007499,7.777510659748978,3.0,-1.0
MgGa2,mp-30651,194,-2.6767913783333337,4.709335633335856,-0.12463436000000025,115.47910527761887,0.0,4.3442048459146125,7.065652,3.0,-1.0
Li7Pb2,mp-30761,164,-2.6280109044444444,4.575943291949709,-0.3182604370370367,168.0108235127105,0.0,4.751792358967824,8.59195,3.0,-1.0
Li5Sn2,mp-30766,166,-2.905859408571428,3.555816317286529,-0.3967511166666665,127.08029694946491,0.0,7.138199145698586,7.138199611875813,2.0,1.0
Li7Sn2,mp-30767,65,-2.7495933433333333,2.9746476621714666,-0.3738595903703705,319.3156640772538,0.0,4.7108669999999995,8.476494358057696,3.0,-1.0
Li7Sn3,mp-30768,11,-2.9327815235,3.6537812760008177,-0.3936639603333333,367.8645976054325,0.0,4.743201999999998,9.461568104327792,2.0,1.0
Mg5Rh2,mp-30778,194,-3.629654138928572,4.1862076776643775,-0.3825089975000005,519.3762543647566,0.0,8.129303,8.58912796158638,3.0,-1.0
CdSiAs2,mp-3078,122,-4.03806948,4.851958749143242,-0.12145933249999975,198.73228086288108,0.8904000000000001,6.979832994071635,6.979832994071635,3.0,-1.0
SrMgSn,mp-30780,62,-2.996031400833333,4.243169321365696,-0.5629203480555555,361.0305397872046,0.0,4.902729,8.941866000000003,3.0,-1.0
Li2AlPd,mp-30816,216,-3.7207871575,4.294102878447042,-0.5349613141666669,56.954869651571464,0.0,4.318656080310402,4.318656080310402,3.0,-1.0
Li2AlRh,mp-30820,216,-4.2226997875,4.4012988132347735,-0.4907674291666666,54.241739834829254,0.0,4.248962221743093,4.248962221743093,3.0,-1.0
PAuS4,mp-30938,2,-4.3758120225,2.9647055421970117,-0.6126242110119046,399.0174111679421,1.4047,6.405755999999999,8.659108616182614,1.0,1.0
CuCl2,mp-30999,12,-3.106160313333333,2.952622250343772,-0.9038574388400002,75.61509046966941,0.0,4.100698565843264,6.993124007052928,1.0,1.0
Rb2Te5,mp-31002,12,-3.064989395714285,4.677043954735576,-0.5396218535714284,287.2047342645626,0.3961000000000001,5.915873634311758,7.505540599815179,3.0,-1.0
Ba(AlGe)2,mp-31059,139,-4.123580808,4.638609225590395,-0.392345168,120.48606266634664,0.0,7.2775658514022386,7.2775658514022386,3.0,-1.0
YAlSi,mp-31080,63,-5.843823291666666,4.03791517013876,-0.6313696372222216,118.41388240126608,0.0,5.538691835798775,5.715136,3.0,-1.0
Sc(MnAl2)4,mp-31081,139,-5.945968945384616,4.115221121750737,-0.3348995895092847,193.91165037806417,0.0,6.6518994148897805,6.6518994148897805,3.0,-1.0
NaP5,mp-31086,62,-4.905365932916667,2.3016989306186995,-0.17518567894841355,513.2576034086703,1.5487000000000002,6.552641,11.056854,3.0,-1.0
BaZnSi,mp-31147,194,-3.243244728333333,4.662952462718327,-0.3752352416666665,164.39718020962601,0.0,4.3974299208766245,9.816708,3.0,-1.0
Li2AlAg,mp-31168,216,-2.845335205,3.9187422622260746,-0.2463408133333332,63.02401277300206,0.0,4.466908088053973,4.466908088053973,3.0,-1.0
Ca5Ag3,mp-31172,140,-2.599692636875,3.6197675996419214,-0.2839842106249999,480.75655689802556,0.0,9.382190753360009,9.382190753360009,3.0,-1.0
Ca(BeGe)2,mp-31209,129,-4.007410547,4.2074074512033,-0.2613142830000001,160.53798677514524,0.0,4.029635,9.886586999999999,3.0,-1.0
AlSiTe3,mp-31220,162,-3.988123898,4.572881193538279,-0.2679653699999996,318.0031550345869,1.3430999999999995,6.912802741896372,7.6840910000000004,2.0,1.0
ScSi3Ni,mp-3129,65,-6.298747665,4.074995116319083,-0.6210380960000002,153.14125919691662,0.0,3.820006,10.554996713044538,3.0,-1.0
YC2,mp-313,139,-8.495681686666666,4.447058270599283,-0.18900418222222126,42.16722581497335,0.0,4.053881956260937,4.053881956260937,3.0,-1.0
Li2In,mp-31324,63,-2.475788806666667,3.818917214130725,-0.2859456522222222,111.92249838810172,0.0,4.73428,5.541817036775213,2.0,1.0
Mg2In,mp-31326,189,-2.0573797777777783,3.8732003543176203,-0.07329850111111114,210.19716545811082,0.0,3.4315910000000005,8.410084526577185,3.0,-1.0
LiCaN,mp-31468,62,-4.73198025,2.3355793979190635,-0.7763152719044442,173.5510409226914,1.3816,3.674674,8.505794999999999,3.0,-1.0
RbGa3,mp-31493,119,-2.6837602966666663,4.677354068018143,-0.16755515166666632,313.80300255865484,0.6214,8.854945108082715,8.854945108082715,3.0,-1.0
Sc3FeC4,mp-3155,71,-8.48194519375,4.427777554136184,-0.4351285693749993,89.53993059670964,0.0,6.65642641109815,6.65642641109815,3.0,-1.0
LiAlSi,mp-3161,216,-3.908203276666667,1.966694452929676,-0.21493237111111144,52.35524531284301,0.14259999999999984,4.199121093164377,4.199121093164377,3.0,-1.0
CaAlSi,mp-3173,187,-4.110351183333333,2.3559907742364445,-0.38485460666666665,67.05970809230726,0.0,4.2041018855972085,4.381114,3.0,-1.0
Ti3AlC,mp-3271,221,-7.924206461999999,4.148160779582289,-0.5924399459999989,73.09340744088684,0.0,4.181121,4.181121,3.0,-1.0
LiP5,mp-32760,33,-4.936814551666667,2.282760079155117,-0.1075891893650797,470.81866082671286,0.4421999999999997,6.126698,9.512086,3.0,-1.0
CuCl4,mp-32829,121,-2.266004838,2.7522483974235215,-0.4430827226079998,123.90051056367943,0.0,6.263859883061483,6.263859883061483,0.0,1.0
Rb3Sb,mp-33018,225,-2.083688395,3.4790369522385447,-0.31603753062499984,180.4968179065279,0.6212,6.343488875150015,6.343488875150015,3.0,-1.0
ScAl,mp-331,221,-5.48577099,3.099620450906752,-0.4467485224999992,38.53857237196983,0.0,3.3777839999999997,3.3777839999999997,3.0,-1.0
Sc2H5,mp-33112,59,-4.712656087857143,2.6860050060531013,-0.5892815854428568,117.40165389110253,0.0,3.360491000000001,6.050179,3.0,-1.0
Li17(MnAs2)4,mp-33334,1,-4.193884891034482,3.3861755504618363,-0.52590344776853,459.5531551065938,0.0,6.138038,8.66594960717993,3.0,-1.0
Cu3AsS4,mp-3345,31,-4.3829285925,4.403425515421743,-0.5268413571875001,297.02004891532823,0.039199999999999235,6.173214,7.445496,3.0,-1.0
Cu4SnP10,mp-34126,160,-5.092311265999999,4.130302651522287,-0.12302745604761944,274.4439254805368,0.3671999999999995,7.296309808920191,7.296310720595307,3.0,-1.0
K2NaAs,mp-34127,194,-2.4183351625,2.1900576439254134,-0.3696930335833333,267.056133193718,0.14690000000000006,5.379540605633626,10.65569,3.0,-1.0
Mn(CuCl2)2,mp-34328,38,-4.195532318571429,3.5198235914960683,-0.9990289303850248,152.77821548481882,1.1427,3.8471309999999996,6.472637582390736,3.0,-1.0
NaAlB14,mp-34763,74,-6.306186706875,2.6579453686517285,-0.14545465447916595,251.55410850268487,1.7014999999999991,7.266955958981794,7.266955958981794,3.0,-1.0
CaAl9Ni,mp-3479,194,-4.013008475454545,2.8803343720481203,-0.2406522000000001,393.87708883250536,0.0,7.5540067825924675,7.970313000000001,3.0,-1.0
MgGeP2,mp-34903,122,-4.56860574625,2.926203255898226,-0.3061358392857141,180.33418762750136,1.5225,6.7607791756363405,6.7607791756363405,3.0,-1.0
LiMg9B20,mp-35040,2,-5.114836998333333,2.560302525394842,-0.11819437388888805,286.6076057366599,0.0,6.139707,7.661468361025907,3.0,-1.0