pretty_formula,task_id,spacegroup.number,final_energy_per_atom,density,formation_energy_per_atom,volume,band_gap,min_abc,max_abc,Dimension,Dim
CaAlGa,mp-1226821,12,-3.341185928333333,3.427472021248148,-0.4147621908333334,132.53660281743734,0.0,5.787889740457484,7.4036430273497125,3.0,-1.0
Cd3PI3,mp-1226891,6,-2.256176491428572,4.718291826879054,-0.4341774933673471,263.5723369814085,1.2987000000000002,4.513342,7.866322401594534,3.0,-1.0
Cd3(CuP5)2,mp-1227011,160,-4.4537639,4.347001909083812,-0.11376781771428646,295.68913181721086,0.9078999999999996,7.469229927249261,7.469230315182751,3.0,-1.0
Ca4ZnAg3,mp-1227017,25,-2.5342202575,4.200875382601514,-0.31174386499999995,217.13965209760468,0.0,4.071631,11.424333,3.0,-1.0
CaGaSi,mp-1227042,187,-3.93039529,3.4820817999200977,-0.4440588225,65.75546847061287,0.0,4.1465955884379415,4.415886,3.0,-1.0
CaGaCu,mp-1227096,12,-3.38720382,4.790899936368336,-0.34290313583333304,120.16509190384376,0.0,5.514121665496056,7.220417643497709,3.0,-1.0
CaMgCd,mp-1227127,38,-1.7485658691666668,3.6875812446540834,-0.2389759724999999,318.44542453520285,0.0,6.012903516006223,10.103777000000001,3.0,-1.0
CaMgZn,mp-1227155,38,-1.7954879316666668,2.977498607417328,-0.1736134183333332,289.53791749255265,0.0,5.8472916773196815,9.666851,3.0,-1.0
CaBeSi,mp-1227218,187,-4.044575103333334,2.2458264791764364,-0.3211328483333335,57.062839066486255,0.0,3.914588300207953,4.299823,3.0,-1.0
CaBeGe,mp-1227231,187,-3.852968373333333,3.4273029076482624,-0.39695484,58.978657049612934,0.0,3.967083547114808,4.327344999999998,3.0,-1.0
Be4AlFe,mp-1227272,216,-4.765658411666666,3.660458129794312,-0.2367867166666665,53.92686304347436,0.0,4.240724427742268,4.240724427742268,3.0,-1.0
Be4AlCu,mp-1227275,216,-3.869731618333333,3.665720299410731,-0.06932595833333306,57.337935910566934,0.0,4.3283165731549715,4.3283165731549715,3.0,-1.0
Be4AlCr,mp-1227276,216,-4.824265653333334,3.250864685120042,-0.09821985999999976,58.75537554750614,0.0,4.363693125417735,4.363693125417735,3.0,-1.0
Be4AlNi,mp-1227279,216,-4.3718003350000005,3.7148757781640223,-0.2912396733333337,54.41013799362879,0.0,4.253354769067824,4.253354769067824,3.0,-1.0
Be4SiNi,mp-1227282,216,-4.4764367683333335,3.89323613213789,-0.11591974166666635,52.388313431122796,0.0,4.200004976640861,4.200004976640861,3.0,-1.0
Ca2GaSi,mp-1227300,38,-3.63504517,2.9153629770757536,-0.5188928493750002,101.36542414843764,0.0,4.107458,5.964916363143746,3.0,-1.0
BaSrN,mp-1227306,160,-4.4472636366666665,4.0119943208381335,-0.5936222130155553,98.90142463504878,0.0,7.6335117536031225,7.6335118508873085,2.0,1.0
Ca2GaAg,mp-1227320,38,-2.8202484225,3.972322599933102,-0.3522856060416668,107.74535152657828,0.0,4.565803,6.132408851206187,3.0,-1.0
Ca(BC3)2,mp-1227328,42,-8.014023662222222,2.129398723489813,-0.1556828153703691,104.31145532409646,0.7707000000000006,5.156058184487545,6.354380313224572,3.0,-1.0
Ca2GaSn,mp-1227330,38,-3.34543625,3.8670857449556806,-0.5832194706250005,115.33298115791814,0.0,4.379012,6.150281993679721,3.0,-1.0
Ca2CuAg,mp-1227346,38,-2.9605013925,4.016731322976368,-0.2247607841666661,104.00051970188322,0.0,4.535278,5.954238244111919,3.0,-1.0
BaSrSi4,mp-1227347,20,-4.5702291058333335,3.7831434368891936,-0.3519444119444444,296.0932201370572,0.0,6.662573198494707,6.6707149999999995,3.0,-1.0
Be3Cu,mp-1227357,160,-3.9342290141666663,4.407823439312799,-0.10486769791666717,102.37423875254551,0.0,7.212622441439244,7.212623067548726,3.0,-1.0
Be8Ru,mp-1227382,187,-4.467335782777777,3.4910809762262893,-0.11292549666666693,164.7348358344683,0.0,4.162472437739979,10.97873,3.0,-1.0
Ca(MnAl3)3,mp-1227419,12,-5.116447605384615,3.6084398175595473,-0.2548397776127319,206.03543982891858,0.0,6.737051704714311,6.871518028658369,3.0,-1.0
Ca10Si6F,mp-1227429,121,-3.989668385294118,2.2734830070565373,-0.8115252644817654,429.6846972361112,0.0,9.143527785738335,9.143527785738335,3.0,-1.0
Be5(Al2Fe)2,mp-1227449,12,-4.757880473636363,3.5160960330638167,-0.15611925500000012,124.99846458580132,0.0,4.363277260288761,7.811184777744348,3.0,-1.0
Ca10Ge6F,mp-1227456,121,-3.8417991964705878,3.2245345068624194,-0.9468158985994116,440.6179501542952,0.0,9.183907992280574,9.183907992280574,3.0,-1.0
Ca4GaSi3,mp-1227558,25,-3.943715245,2.6630552929754074,-0.5279106096874999,195.9753954140424,0.0,4.018441,10.835509,3.0,-1.0
Ca2ZnGa3,mp-1227660,8,-2.875765011666666,4.572149543211912,-0.4832266987499996,128.83429548489354,0.0,5.7973553210212145,7.3673310471448215,3.0,-1.0
Ca2Zn3Ga,mp-1227661,8,-2.1735862266666666,4.4250959889423624,-0.3704985445833335,129.877981318553,0.0,5.7859638126763295,7.37820799662479,3.0,-1.0
Ca2Zn3Ag,mp-1227685,8,-2.078145171666667,4.860136588895709,-0.3076474061111112,131.2852256962817,0.0,5.772331659592421,7.333746172257737,3.0,-1.0
BaSr,mp-1227725,65,-1.80162182,3.1645787168993897,0.0026042216666666285,118.03570548576931,0.0,4.274866893262643,6.797711,3.0,-1.0
BaSiGe,mp-1227766,198,-4.39041649,4.8156000099556335,-0.4013122549999994,328.34577235200095,0.08150000000000013,6.8988570000000005,6.8988570000000005,3.0,-1.0
BaCa,mp-1227938,65,-1.9214963,2.7836034712505,0.04078905500000008,105.82970460869306,0.0,4.355268164664605,5.586277,3.0,-1.0
BaAlSn,mp-1227950,187,-3.683423483333333,4.751913454208472,-0.4587173116666665,98.89981045448609,0.0,4.696504196609219,5.177444,3.0,-1.0
BaCa3,mp-1227959,166,-1.9453971425,2.329799896997584,0.03854547500000005,183.57374943819318,0.0,13.326316173343818,13.32631699452992,3.0,-1.0
Al4SiPd,mp-1228117,166,-4.571033523333333,3.742360153338143,-0.3064503316666662,107.57041455579424,0.0,7.316124067570274,7.316124886092638,3.0,-1.0
Al6CoCu3,mp-1228194,156,-4.489615805,4.708974390683952,-0.3016765265000004,145.09446347402292,0.0,4.104764952160477,9.943601,3.0,-1.0
Al5FeNi,mp-1228374,38,-5.0928032171428566,4.210080607351208,-0.3816576871428573,393.5458924125845,0.0,7.667702,7.698714192182614,3.0,-1.0
Al3BC,mp-1228446,194,-5.52695881,2.8086861396731884,-0.09837881783333344,122.69652970417135,0.4530000000000003,3.5006573435863446,11.561186,3.0,-1.0
Al2ZnSe4,mp-1228454,6,-4.0305294457142855,4.101047580833755,-0.7827378484821429,176.22001261926613,0.8803999999999998,3.869886,6.987235559865002,3.0,-1.0
Al3FeSi2,mp-1228467,108,-5.3253992075,3.67459482042956,-0.2325061391666671,174.39671937143603,0.0,6.409117591911541,6.409117591911541,3.0,-1.0
Al2Te3,mp-1228524,9,-3.80912771,4.339510625551457,-0.42491682,334.25988094999394,1.3363999999999994,7.471670034187138,8.088863530212697,3.0,-1.0
B8O,mp-1228685,8,-7.014938114444441,2.5433355979865544,-0.6059603771759243,200.74149672067054,0.000300000000000189,5.139874606400919,9.145882546611727,3.0,-1.0
Al4InAgSe8,mp-1228721,5,-4.191799187857144,4.280431808074082,-0.7250966968154761,373.3090771257151,0.6840999999999999,6.840647401726316,8.278018627286183,3.0,-1.0
Al8V5,mp-1228763,8,-6.01987850076923,3.990324306687956,-0.22109873230769167,391.6388171129825,0.0,7.926343400547062,7.9780265223726845,3.0,-1.0
AsP,mp-1228795,160,-4.95312385,4.494692209277934,0.08307828321428534,39.122453192628754,0.0,3.9485641220560166,3.94856510966009,2.0,1.0
AlInSb2,mp-1228866,160,-3.7968655825,4.815494686234951,-0.1080500725000002,132.87069941091585,0.2375999999999996,7.855672972584844,7.855673834537238,3.0,-1.0
AlGaP2,mp-1228888,115,-4.9060676525,3.159060128178272,-0.506006888660715,83.39440759422668,1.6638000000000002,3.893792,5.500364,3.0,-1.0
AlInSb2,mp-1228890,115,-3.8190862625,4.829477549251099,-0.13027075249999998,132.4859967655933,0.3185000000000002,4.550236,6.398853,3.0,-1.0
AlGaAs2,mp-1228891,160,-4.4344454275,4.332310284746595,-0.4114683918750002,94.499729894377,0.9501,7.026682602867442,7.026682811660493,3.0,-1.0
AlGaSb2,mp-1228895,160,-3.9040482375,4.681558123683967,-0.14612978437500024,120.67694618660202,0.3362999999999996,7.622156766662632,7.622157237582876,3.0,-1.0
AlInGaSb3,mp-1228917,44,-3.77624139,4.968221828656634,-0.12418159291666638,192.7859065259041,0.2887000000000004,10.016224224897124,10.016224224897124,3.0,-1.0
AlCdSbTe,mp-1228925,160,-3.27189945,4.888002666771516,-0.2867075099999994,132.0659626422825,0.7791000000000001,7.913862980109272,7.9138631618463675,3.0,-1.0
AlAgSnSe4,mp-1228963,82,-4.011658845714286,4.768387617941062,-0.5014660458630951,198.28725896771562,1.1072000000000002,6.896805493945802,6.896805493945802,3.0,-1.0
AlAg(PSe3)2,mp-1228964,5,-4.143295843,4.385035805906184,-0.30527860078720226,253.92872036299119,1.6424,6.430891208097678,7.386181986223803,2.0,1.0
AlCu(PSe3)2,mp-1228984,146,-4.240798835,4.390067296366625,-0.2761165261205349,236.8728577766096,0.9193999999999996,7.815990734674267,7.815990976621772,2.0,1.0
AlCuSnSe4,mp-1229027,82,-4.194211145714286,4.801565692513809,-0.5030682506250004,181.5890527539548,0.5512999999999999,6.938935873017996,6.938935873017996,3.0,-1.0
Mg(AlGe)2,mp-1232292,164,-3.75020072,3.6981768808760838,-0.0827032359999997,100.37657132451014,0.0,4.127704412832029,6.802751,3.0,-1.0
LiC12,mp-1232339,63,-8.667148948076923,2.1298763172640602,-0.003280389102562035,235.55981953924987,0.0,4.299389902124487,14.710718,2.0,1.0
ScBC,mp-1232372,194,-8.008293535,4.16757205548228,-0.5954130097222219,54.01100260224906,0.0,2.9187422432729484,7.320827,3.0,-1.0
CsVP2S7,mp-12324,5,-5.087092512727274,2.5836746372645827,-0.9855644006317176,302.23140890791666,0.0,6.541418083504831,7.170188848571912,3.0,-1.0
MnCN2,mp-12335,166,-8.7540091525,3.3521625807358504,-0.18065126610379245,47.04078272540674,0.2270000000000003,5.171485528433101,5.171485669505138,3.0,-1.0
LiO8,mp-1235059,8,-4.894248077777778,2.20389838030884,-0.41372289814814817,101.66840431506266,0.0,5.057375745237247,5.112338626127772,3.0,-1.0
LiO8,mp-1235708,1,-4.8774302144444475,1.9858474947235345,-0.3969050348148152,112.83184242189002,0.15209999999999996,4.625938326672872,6.0595924336824005,1.0,1.0
LiO8,mp-1235796,5,-4.8888792244444454,2.2314299825776502,-0.40835404481481496,100.41400955799593,0.0,5.0219757332389605,5.086811808215142,3.0,-1.0
LiO8,mp-1235877,12,-4.8850084533333336,2.2755700205620717,-0.4044832737037041,98.46624343521879,0.0,4.343358016673044,5.091488050092232,1.0,1.0
NaBC,mp-1238775,194,-5.753957846666666,2.6363595389532946,-0.01368295083333256,57.70968133427528,0.8095999999999997,2.8182060094416452,8.390205,3.0,-1.0
NaO2,mp-1238787,136,-4.480589023333333,2.1286881452982818,-0.8410546386111104,85.79055387475346,0.0,4.328704,4.578505000000002,3.0,-1.0
Na(CrS2)2,mp-1238795,10,-6.0971812171428565,3.0372646881983054,-1.1667945565476183,139.54636982158345,0.0,3.457268,6.837253625927957,3.0,-1.0
Na(CrS2)2,mp-1238805,227,-6.000787807857143,3.020181463899997,-1.0704011472619044,280.6713877900887,0.0,7.349160180984082,7.349160180984082,3.0,-1.0
BH,mp-1238837,15,-5.019582237916667,0.971241984486298,-0.06001802180999979,484.966142138472,0.0,7.119353174405804,10.828843910401748,0.0,1.0
CuCl2,mp-1238872,166,-3.019590453333333,3.1300151801702505,-0.8172875788399999,71.32962165709345,0.0,6.892960338468878,6.892960358212499,2.0,1.0
K(CrS2)2,mp-1238894,10,-6.097503089999999,2.840754183502895,-1.1962954679285704,158.6156622097549,0.0,3.510968,7.636995045165343,3.0,-1.0
Li2ZnGe,mp-12411,216,-2.7475546000000004,4.2882290918800186,-0.3224003004166667,58.832528655086,0.07449999999999958,4.365602313726939,4.365602313726939,3.0,-1.0
SrCaGe,mp-12418,62,-3.3816534283333333,3.5659039078571784,-0.608950432222222,373.1666181934983,0.4569000000000001,4.969256,9.207336999999999,3.0,-1.0
Sr2N,mp-1245,166,-4.451432806666666,3.4930771867130925,-0.6742879085711108,89.96409806530323,0.0,7.3312671144642545,7.331267246149262,2.0,1.0
NaMnN,mp-1245558,186,-6.3934912200000005,3.728942331274239,-0.25054759512283553,81.87890236353907,0.0,3.035739,10.251706,2.0,1.0
Mg3FeN3,mp-1245565,11,-5.958761271428571,3.4398434676233305,-0.6547241867342848,164.88368178206184,0.0,4.33643831,6.317373477488919,3.0,-1.0
SnCN2,mp-1245605,194,-7.2469715275,3.886022303632465,0.038352705060000325,135.65757149937372,0.010800000000000587,3.93940923,10.09327129,3.0,-1.0
LiMn2N3,mp-1245623,36,-7.85059553,4.109266256488768,-0.502303468297279,128.37102429538703,0.0,4.951892,5.485576311622782,3.0,-1.0
Ca7RhN6,mp-1245633,72,-5.707412816785713,3.378524959154624,-0.7703885199485713,459.5426942505055,0.0,6.346405382903364,9.085794623879462,3.0,-1.0
Na6OsN4,mp-1245752,137,-4.720686561818182,3.5700301728786745,-0.09112869813818104,357.40398038756143,0.0,6.06761996,7.67486079,3.0,-1.0
CsCN,mp-1245795,9,-6.41788901,2.71480935816554,-0.3930039234370106,194.4133597165422,0.000500000000000167,4.978822374362235,10.301693775231383,3.0,-1.0
LiFeN,mp-1245798,62,-6.577108006666666,4.366935006503724,-0.4666420285711108,116.80254291834522,0.0,2.882053927643444,9.354262,3.0,-1.0
CaCuN,mp-1245832,12,-5.226108660833334,3.700044364995053,-0.5403490816266666,211.16543858712967,0.0,3.837209650296572,8.91002793771901,3.0,-1.0
Sb4S3N2,mp-1245848,12,-5.0646177733333335,4.735737715596988,-0.3046267804594444,214.328138201968,0.8710000000000004,3.7032219880699833,9.200801620011324,2.0,1.0
NaFeN,mp-1245896,186,-6.122289943333333,3.9876979332678135,-0.2099141819044436,77.32124615248779,0.44810000000000016,3.007391745572565,9.87161,2.0,1.0
Ag3PS4,mp-12459,31,-3.98668144375,4.515086120942675,-0.5113172763839291,355.152456222366,0.9998,6.61614,7.7580339999999985,3.0,-1.0
LiSnN,mp-1245978,62,-4.866481634166667,4.943402049954949,-0.2428259977377773,187.64977192467381,0.0,3.24097661,10.2888522,2.0,1.0
LiSnN,mp-1245983,186,-4.935775933333333,4.965349553089297,-0.3121202969044437,93.41016753079022,1.1624,3.276733,10.045689,2.0,1.0
LiMnN2,mp-1246000,122,-7.271157855,3.4195406429417905,-0.5272644269371263,87.30407519664787,0.0,4.561380736046476,8.392124521723902,3.0,-1.0
Ca4RuN4,mp-1246068,2,-6.2363269472222225,3.784843699475314,-0.7800293999466663,278.51597282904584,0.0052000000000003155,6.05237498833755,8.709947308074325,3.0,-1.0
LiGeN,mp-1246087,186,-5.2563721150000005,4.198665945852752,-0.4282311452377776,74.02638552692845,0.0,3.0123849999999996,9.419459,2.0,1.0
Ca4CrN4,mp-1246110,2,-6.5281065394444475,3.2283357203183782,-1.0297359016133332,276.043523960551,0.0,5.90506057676191,8.783469502756155,3.0,-1.0
Mg4SnN4,mp-1246115,2,-5.374570710555557,3.8709933540288977,-0.6833950655022218,233.322483159268,0.000399999999999956,5.589120227316908,8.474097263744499,3.0,-1.0
Ca3(InN2)2,mp-1246121,15,-5.409843374444447,4.649518752014405,-0.595392724391111,289.92570171522067,0.11370000000000058,6.006967911461444,8.762477455106223,3.0,-1.0
MgCrN2,mp-1246133,33,-7.599170725625,3.6321490313609903,-0.8096027518149995,190.76122809634788,0.0,5.14642912,6.54996541,3.0,-1.0
Ca8Fe3N8,mp-1246212,12,-6.433773932105263,3.2559179305240287,-0.903532606791578,306.11228287475535,0.0,5.00385377484405,9.2805524281501,3.0,-1.0
Ca9(FeN4)2,mp-1246229,12,-6.081338109473684,2.9294454650234316,-0.8913285210021049,331.28957773402834,0.0,4.925548391605966,9.556730850121287,3.0,-1.0
Ca8Mn3N8,mp-1246243,12,-6.62179927736842,3.2405774331153236,-0.9823415956845004,306.16715335954945,0.0,5.0009836551722495,9.250761797014448,3.0,-1.0
Na6ReN4,mp-1246277,137,-5.0326283181818185,3.5957630129995644,-0.2924165695018175,351.130564499419,0.0,5.98315637,7.66071209,3.0,-1.0
Li3RhN2,mp-1246336,14,-5.135168990416667,2.9081160080744777,-0.3024988495433328,346.5795068566706,0.0,6.583028995704197,8.099976180914371,3.0,-1.0
Mg4VN4,mp-1246378,2,-6.239604175555559,3.1805272845917605,-0.984613617724444,213.2115959106834,0.0,5.401000508915121,8.29374634314105,3.0,-1.0
Ca5MgN4,mp-1246397,59,-5.1830189425,2.6383277273320767,-0.8392021224519993,353.3674083906554,1.0407000000000002,5.8661642,7.93676779,3.0,-1.0
Li6ReN4,mp-1246483,137,-5.7966163463636375,4.254702229889512,-0.7322569704109092,221.587068917317,0.0,4.877961900000002,6.73989304,3.0,-1.0
RbFeN,mp-1246490,62,-5.920189155,4.0898634553749895,-0.11918610829333433,252.24714748442003,0.0,3.54616185,10.76312477,3.0,-1.0
Sr2CuN2,mp-1246496,139,-5.262451148,4.740848765982998,-0.5858284376186667,93.44968559729601,0.0,3.8259879999999997,6.9194304238552045,3.0,-1.0
Ca3Co3N5,mp-1246509,2,-6.676373763636364,4.3832609099232736,-0.5759997669909093,278.11679351579016,0.0,5.535455340442153,8.262425368507124,3.0,-1.0
Mg4MnN4,mp-1246522,2,-6.018514367222222,3.276486216385256,-0.7548793204639076,211.0181733515449,0.0,5.386614918274463,8.294912506991741,3.0,-1.0
LiGeN,mp-1246553,62,-5.2433846866666665,3.9263361407683233,-0.4152437169044442,158.32167846213008,0.1269,4.13226254,6.92376312,3.0,-1.0
Mg2RuN3,mp-1246569,36,-6.492242369166667,4.094749800697784,-0.4368479828566656,155.47983179186238,0.0,5.210276,5.874571268800218,3.0,-1.0
Ca2PdN2,mp-1246581,139,-5.7056573880000006,4.4093133705313345,-0.6864521989519999,80.81396172921926,0.0,3.561186,6.8517272828117575,3.0,-1.0
Li2CuN,mp-1246596,57,-4.327506770625,3.3511176947043864,-0.3601256228866667,181.23015092281864,0.35639999999999983,4.9645547,7.019976400000001,2.0,1.0
LiCr2N3,mp-1246665,36,-8.178277291666666,3.752776861945876,-0.6662048967455535,135.35839691981815,0.0,5.03390639,5.5891510827341575,3.0,-1.0
Mg2Mn3NiS8,mp-1246683,166,-5.658766922857143,3.3334591740223987,-1.0695001281403944,263.3370421271361,0.0,7.199505957582575,7.204391550352742,3.0,-1.0
Ca2CdN2,mp-1246711,139,-4.8456788500000005,4.160273269897053,-0.6778720709520002,88.04286347644619,0.0,3.602903433431848,7.243598935651603,3.0,-1.0
NaGeN,mp-1246750,186,-4.895763056666667,4.143763837272245,-0.2657123035711108,87.86969890802185,1.4959000000000002,3.1053321542960584,10.521856,2.0,1.0
Mg5ZnN4,mp-1246773,59,-4.7999613635000005,3.2222031649477,-0.692858102452,250.41617762729598,0.7860999999999998,5.1833782,7.14735618,3.0,-1.0
LiCoN,mp-1246834,62,-6.045412286666667,4.4370668086343485,-0.388841336904445,119.5793099750945,0.0,2.841391,9.963677,3.0,-1.0
Ca3Fe3N5,mp-1246856,2,-7.2010455763636365,4.2787554192801,-0.7293029201727266,277.718621961856,0.0,5.472587176432916,8.293979287019832,3.0,-1.0
Ca4RhN4,mp-1246957,2,-5.933111966666668,3.831315261270297,-0.6890457288355551,276.7287971826189,0.0,5.997725733938707,8.70026797252673,3.0,-1.0
Ca9(MnN4)2,mp-1247014,12,-6.217962987894738,2.895867247995388,-0.9551424951763332,334.09082662677406,0.0,4.907324120104001,9.625189170459167,3.0,-1.0
BaLiN,mp-1247100,62,-4.416214645,4.522906136114052,-0.4894260169044446,232.43579653873024,0.0,3.8787730000000002,9.945793,3.0,-1.0
Ca2MgN2,mp-1247107,14,-5.193277182,2.717936189506005,-0.8899923449519995,323.7440486995054,1.3277,6.234935898312748,8.23989621,3.0,-1.0
Mg2Mn3FeS8,mp-1247186,166,-5.86224425857143,3.3391923753820736,-1.0808441638546802,261.4684334745527,0.0,7.185270747059572,7.186292559878773,3.0,-1.0
BaMg2N2,mp-1247195,164,-4.911191522,4.370850821785667,-0.7062964609519995,81.28234341559005,0.0,3.7273318265016333,6.755686000002516,3.0,-1.0
Ca3RhN3,mp-1247259,176,-6.072267248571428,3.778868884463168,-0.7524780953057137,233.0368626942081,0.0,4.97201901,7.34644367574928,3.0,-1.0
Ca4MnN4,mp-1247294,2,-6.388004776111113,3.2976741054237446,-0.9442275826861296,273.20213252462,0.0,5.941849661268723,8.727188051774734,3.0,-1.0
KFeN,mp-1247327,62,-6.00805608,3.121160800004871,-0.1637647417933342,231.85698257621019,0.0,3.528429,9.856966,3.0,-1.0
Mg3CrN3,mp-1247332,194,-6.274224072142857,3.072769367668199,-0.8011806174485717,180.42081644726272,0.0,4.41296348,6.8710162009819875,3.0,-1.0
Ca3InN3,mp-1247360,176,-5.384000161428572,3.7335941166036233,-0.7231573138771432,246.4590589902877,0.5335999999999994,5.08844975,7.480221690009433,3.0,-1.0
Ba2SrN2,mp-1247390,164,-4.855350062,4.586691294221149,-0.568876604285333,141.2973826510359,0.0,3.9305682257709247,10.560664009944922,2.0,1.0
Li2MnN2,mp-1247418,164,-6.3622671560000015,3.738269911158033,-0.5853678402163679,43.013405184044466,0.4918999999999998,3.0262000383214915,5.423215004423668,2.0,1.0
Ge2SeN2,mp-1247419,36,-5.922855192,4.855489209059809,-0.1934728794207501,172.5373519937388,1.6814,5.18323656,6.3647558688088575,3.0,-1.0
Zn4SnN4,mp-1247422,2,-4.590832773888889,4.9388968044277375,-0.0510066577244446,293.4315539259737,0.20490000000000008,5.865914866074686,9.02746013825921,3.0,-1.0