pretty_formula,task_id,spacegroup.number,final_energy_per_atom,density,formation_energy_per_atom,volume,band_gap,min_abc,max_abc,Dimension,Dim
K2Ag4Se3,mp-573891,12,-3.1861681066666665,5.291871715901876,-0.5151951799664347,468.5202175712668,0.004200000000000204,9.378368800320237,12.064461749430391,3.0,-1.0
Sr11(MgSi5)2,mp-573908,12,-3.732770772173913,3.3122776930316555,-0.426771029275362,648.3605741347658,0.0,10.152129620723967,14.902648325263133,3.0,-1.0
Cs2Te3As,mp-574138,14,-3.26650921,4.433935158181017,-0.6198715534770116,1083.8715007349804,0.8398999999999996,9.614771000000001,11.716647930607627,3.0,-1.0
TiGeTe6,mp-574169,12,-4.224943801875,5.812934873674097,-0.3026531204166667,506.2555568449746,0.4316000000000004,7.727403393319647,17.82728716744881,1.0,1.0
TlIn5Se7,mp-574279,11,-3.619127669230769,6.212954374531213,-0.4967082866466349,711.5772454108717,0.7407000000000004,4.140396,18.176192115869178,3.0,-1.0
Cs3Bi2,mp-574498,15,-2.418421425,4.9928487171124205,-0.32516627775862084,543.2266822712488,0.0,7.3747269451100355,10.317271506208703,3.0,-1.0
Cu2SeO4,mp-578931,198,-5.1473459096428575,4.869702016396596,-1.0506335249776788,736.6823008222156,0.2421000000000002,9.031504,9.031504,3.0,-1.0
Cu2Pb(SeO3)3,mp-579463,2,-5.270393738666667,5.253017951622517,-1.2297414678854162,904.2893737385305,0.1227999999999998,7.912479091351647,12.72787627416318,3.0,-1.0
Ca6Cu2Sn7,mp-579544,12,-3.7601408339999995,4.88464025250896,-0.5402064603333339,407.44165068652563,0.0,7.536336193598385,12.425002612238474,3.0,-1.0
Al6C3N2,mp-5798,166,-6.545814261818182,2.988589974190057,-0.5404741295236358,125.53526966350141,0.2119,13.639154936433927,13.639155452097173,3.0,-1.0
CsCrI3,mp-580597,60,-3.8340017105,4.559576875827816,-0.8099041730862069,823.9586842960284,0.0,7.0445839999999995,14.112466,3.0,-1.0
AgI,mp-580941,186,-2.4119611975,5.286907458662271,-0.23367688833333355,294.9544272171785,1.3759,4.84863381150701,14.487235,2.0,1.0
Ga2NiCl8,mp-580999,15,-3.353720317727273,2.5320263869732016,-1.3657989087345457,631.8946363859591,0.4607,9.637532891305378,11.69831663911428,1.0,1.0
Sr13Al6Si8O,mp-581263,12,-3.873325762857143,3.2210168238456065,-0.5845797306398813,794.7618255718468,0.0,11.701615341354588,17.560563601485008,3.0,-1.0
Hg2NO4,mp-5824,14,-4.4540306492857145,6.796137549321491,-0.8051028217685712,468.3273370950623,1.6237,5.669043,12.21003930085182,1.0,1.0
Os(SeCl6)2,mp-582444,43,-3.047910462,2.916757472655091,-0.8302191869205003,880.8204222790579,0.0,8.950204796643705,12.789481745064885,0.0,1.0
In2Te5,mp-582549,9,-3.2500671428571435,5.45818505410034,-0.2186568414285713,527.9203468948825,0.9209000000000004,8.861659320815372,14.047816327897372,2.0,1.0
RbRe3Br10,mp-582648,12,-4.484139400714286,5.221772515492249,-0.5781836130357141,917.8384326111056,0.9885000000000002,9.539599523678234,10.670658393523286,3.0,-1.0
Y5GaCo5,mp-582751,63,-6.737870178181819,6.302146439764331,-0.292230174166668,426.2802609034452,0.0,5.4816619677649765,20.607793,3.0,-1.0
Bi12PtCl12,mp-582988,1,-3.6241426792,6.199948707579307,-0.9122414331648002,837.8519511783426,0.9321000000000002,9.334588,9.543044661511805,0.0,1.0
NaSn2,mp-583168,12,-3.2694625108333333,4.743862169445764,-0.15819720194444406,729.2296104197362,0.0,7.644302261519557,15.809829262820644,3.0,-1.0
FeCl3,mp-583463,149,-4.208092294166667,2.605780160714477,-1.150203341611667,620.1891076297115,0.4334,6.187586290897121,18.704710000000002,2.0,1.0
Zr7P4,mp-583740,12,-8.574941662272728,6.116071861545503,-1.1670282208441565,414.0238070135997,0.0,8.167559985413758,14.823020780493698,3.0,-1.0
CsMo6Se7,mp-5883,148,-7.099951054285714,5.997007671744421,-0.6399052760240908,698.4751965887132,0.0,10.034767524609027,10.034768221610404,3.0,-1.0
Cs2Mn3Te4,mp-5927,72,-5.149540956666666,4.590070739093162,-0.4996378594252871,680.8648181683134,0.0,10.715701604704051,10.715701604704051,3.0,-1.0
NaAsS2,mp-5942,14,-4.16128851375,2.724050376725762,-0.9313509248958334,395.11167105245613,1.3699000000000003,5.6559349999999995,11.696525999999999,3.0,-1.0
KTa(CuSe2)2,mp-6013,40,-5.13007081125,5.107261724801062,-0.7362913327968759,431.11210175399765,1.7168,7.815333,10.050684669350641,3.0,-1.0
Ba6Ge5N2,mp-601322,59,-4.536030304615385,5.129008519366272,-0.6488065638276924,786.8367606925334,0.0,4.238164,19.069913,3.0,-1.0
Sr6Ge5N2,mp-601326,59,-4.487550006153846,4.5281415017366715,-0.70624453152,672.5071341460517,0.0,4.054611,18.089192999999998,3.0,-1.0
Rb,mp-604321,194,-0.9782816275,1.5438505712149495,0.0022524449999999922,367.7107706730138,0.0,5.0771617651953935,16.471521,3.0,-1.0
TiAs2,mp-604647,58,-6.373890786666667,6.249443036076458,-0.6359811777777781,420.2685059389445,0.0,3.5159769999999995,13.314097,3.0,-1.0
ZrTe5,mp-605,63,-4.544733089166667,5.4449279162561,-0.5006988758333334,444.7827258418251,0.0777000000000001,8.184967740000507,13.839632,1.0,1.0
In2Cu2O5,mp-605333,13,-5.355408569444445,6.521137277453092,-1.4742854423611107,444.82972402269064,0.0,3.329457,13.555819184156224,3.0,-1.0
Ba5Ga5Pb,mp-605650,187,-3.0587054427272733,5.809161319310883,-0.4725255579545456,355.152258629635,0.0,6.137351355705488,10.887344,3.0,-1.0
Sr3In4Pb,mp-605735,63,-2.9312447025,5.901868836511213,-0.45776648375,522.9503178026378,0.0,6.600815465188072,16.948667999999998,3.0,-1.0
AgSbPbS3,mp-605863,14,-4.1035540854166666,6.05646147885682,-0.5880250997569441,584.5696204584543,0.5552000000000001,5.855225,12.184347,3.0,-1.0
BaCa4(CoN2)2,mp-606338,130,-5.8771074936363625,3.6865746220164417,-0.7891170672290913,849.5665520815402,0.1955,8.376007000000001,12.10942,3.0,-1.0
CsTaI6,mp-606510,15,-3.4772581075,4.820912960899452,-0.7401011459913795,740.749610810811,1.1834000000000002,7.986336435746742,14.381645580769991,3.0,-1.0
CuP10,mp-606644,2,-5.336848699772727,2.6923790005261363,-0.04302458301948064,920.8986310036432,1.0431,7.247282000000001,11.938738661021564,2.0,1.0
Ca3Ga3Rh2,mp-607230,62,-4.3682753546875,4.994223556541121,-0.6395626187500003,711.8173593388559,0.0,5.843927,14.995966000000001,3.0,-1.0
Cu3BiS3,mp-607291,19,-4.288040422142856,6.020515485147206,-0.4870941477678577,547.0079912425583,0.7348999999999997,6.765639999999999,10.440512,3.0,-1.0
FeSeBr7,mp-607953,7,-2.755869966666667,3.4465397481452755,-0.15315884026041676,668.8650345823157,0.0826,6.753771,14.735109926929354,0.0,1.0
SrIn,mp-608072,9,-2.644974769375,4.661915979342691,-0.4243922777083333,576.855025365373,0.0,6.669846208678311,13.864218026607693,3.0,-1.0
Rb3Pb4Au,mp-608081,59,-2.758957403125,5.426150116224972,-0.12569839843749975,784.7528276740868,0.19810000000000014,6.981717,15.671878,3.0,-1.0
Sc2CrC3,mp-608543,55,-8.743852614166666,4.408022439412057,-0.41079798416666574,268.1260047334536,0.0,3.27812,14.109910999999999,3.0,-1.0
Ti(AlBr4)2,mp-608551,58,-3.667037464090909,2.717058275888458,-1.077759646212121,905.8050325136734,0.345,6.402735,13.512877,1.0,1.0
BiSeCl,mp-610491,62,-3.7232248575,5.863707886469848,-0.8432926027012501,366.3261437833304,1.8415,4.191579,9.361683,1.0,1.0
Cs2MnTe2,mp-610744,72,-4.222890194,4.225728035095148,-0.7750675791034481,452.6489740497786,1.0618000000000003,9.4415531424737,9.4415531424737,3.0,-1.0
K6Na3GaSb4,mp-6112,194,-2.5956916714285714,2.937849245573924,-0.44208804325,972.5471598518964,0.6975,10.29223614051718,10.601335,3.0,-1.0
Ca3InP3,mp-614572,62,-4.52739963,3.178573626075391,-0.9547794936734694,685.354524729524,0.9917000000000008,4.158868,13.595123999999998,3.0,-1.0
Ba5(InSb3)2,mp-615760,55,-3.8956922942307695,5.30692424219159,-0.8285977519230769,1030.5883735241077,0.0,4.869871,15.604963,3.0,-1.0
Sr3InP3,mp-616026,62,-4.377863323214286,3.9632555230884887,-0.9407225983163262,788.6935319356837,1.4050000000000002,4.358512999999999,13.978907999999999,3.0,-1.0
Cd(In2I3)2,mp-616218,128,-2.4069627381818184,5.277199135992286,-0.4911717954545458,838.9605467339824,1.5381999999999998,9.157849,10.00356,3.0,-1.0
Rb3(Cu4Se3)2,mp-616220,12,-3.7865107029411766,5.551375090681425,-0.4505857356801474,370.47213371747523,0.0,9.530384445453713,10.294697488984507,3.0,-1.0
In2Sn3S7,mp-616255,11,-4.297681782083333,4.833252422120717,-0.8107641076562496,556.7280603521167,0.5128000000000004,3.847176,13.081057312807904,3.0,-1.0
Y3Co2,mp-616512,58,-6.888381492000001,5.589344234125663,-0.165171706000001,457.0243878399081,0.0,3.9668870000000003,12.225549,3.0,-1.0
Ti2S,mp-616559,58,-7.729624664166668,4.802688104324695,-1.30830003076389,530.2411338716395,0.0,3.3248580000000003,14.033627,3.0,-1.0
RbPbIO6,mp-616564,182,-4.779824346666667,5.144900144702858,-1.2585813944444442,332.80409491774435,1.3957000000000002,5.559626561582442,12.432739,3.0,-1.0
In4Te3,mp-617281,58,-3.1867631078571432,5.956751866408736,-0.26724343500000003,938.9637065631283,0.1977000000000002,4.515865,16.000129,3.0,-1.0
PbCN2,mp-619032,33,-7.283378060625,6.20194646829572,-0.07228502431499972,264.77189272988755,1.8563000000000005,3.904752,12.106439,2.0,1.0
In2PbS4,mp-619279,62,-4.2114045175,5.785112502827202,-0.9102653750000006,648.8129549223544,1.4901,3.8923900000000002,13.884276000000002,3.0,-1.0
CsHg2Br5,mp-619510,11,-2.0376215375,4.925722570563818,-0.8266970622413794,629.4663588790972,2.008,6.568694,11.629386752299967,3.0,-1.0
Ti9Se2,mp-619905,55,-7.5410572586363624,5.331335524747117,-0.4454889763352271,366.7364533213552,0.0,3.460467,15.510345999999998,3.0,-1.0
Ti2Se,mp-620032,58,-7.2577556969444466,5.914803787312327,-0.8287905266145835,588.52916606879,0.0,3.449071,14.533398000000002,3.0,-1.0
V2P4S13,mp-620190,2,-5.239453874473685,2.1596219528320897,-0.7673578821005639,988.2291434407672,0.0,9.507273,11.996781320545692,2.0,1.0
Ba3InAs3,mp-620346,62,-4.190799988214286,5.106292443628441,-0.9785212117857148,977.6181562022259,0.5230999999999999,4.679799,14.705891000000001,3.0,-1.0
TaAg7S6,mp-620369,7,-4.299470285,6.123193874274424,-0.547783938244048,612.0262380261196,0.9724999999999996,7.446771000000001,13.098310189050991,3.0,-1.0
Cs3Te22,mp-620471,1,-3.0856895136,5.453119581154529,-0.2121364105517239,976.2392468504524,0.0,9.669671000000001,12.446827555779867,3.0,-1.0
NaSr2AlP3,mp-620652,12,-4.409742787857144,3.1078327343400085,-0.8841644824829932,679.9228216620453,0.7213000000000003,8.138617571557715,11.571856621404926,3.0,-1.0
AgPb2Br5,mp-621612,15,-3.071964945,6.2768376263155226,-0.7666545895833332,487.7186278687881,2.0142,8.09200719479617,9.166638321298926,3.0,-1.0
Mn2GeS4,mp-621925,62,-6.101824495357143,3.6305958904792455,-0.8391958863300489,568.5632375263634,0.0,6.029103262615843,12.765988661167452,3.0,-1.0
Sb4Pb4S11,mp-621960,55,-4.319333807631579,5.644989610946013,-0.6577821352302635,981.6495523386573,0.0,3.950297,15.869922,3.0,-1.0
Ba5Pb3,mp-622106,140,-3.12950083625,5.844166220633423,-0.53790141625,743.4337915043069,0.0,10.95886933726678,10.95886933726678,3.0,-1.0
KCuP2Se5,mp-622199,14,-4.077586143055556,3.84464040094824,-0.35361561770684496,966.4279416712468,1.2294,7.857222,13.308952031852133,3.0,-1.0
Mn(GaS2)2,mp-622375,2,-5.1691126,3.6006474089217786,-1.010561608165025,892.7778487848944,0.5010000000000003,6.444419074411836,13.065923787956992,3.0,-1.0
In10(Pb2S7)3,mp-622755,2,-4.224860067027027,5.861493438210385,-0.9079544744763514,868.2307427816237,1.1785999999999994,3.896236,15.973409870213716,3.0,-1.0
Na3CuSnSe4,mp-623030,14,-3.627893905,4.017586226045578,-0.7349626732638883,937.5122713009745,1.1801,6.907177000000001,14.80448854987061,3.0,-1.0
GePbS3,mp-624190,14,-4.580331441499999,4.625705275063893,-0.8294025363750009,539.9572785365629,1.8211000000000004,6.959606,10.665164,2.0,1.0
Nb4Co2PdSe12,mp-624253,12,-6.055167928947368,6.047231881485849,-0.6997639662171053,423.8185393615706,0.0,6.9166812748818325,19.373951283517076,2.0,1.0
Cu7S4,mp-624299,62,-4.262745622727272,5.670956524416504,-0.3912541538636367,671.2271873487343,0.0,7.8293490000000014,10.889316,3.0,-1.0
In2Se,mp-627397,58,-3.2449457920833336,5.6891529425852525,-0.2451861461979169,720.5792763428627,0.0,4.092846,15.162026999999998,3.0,-1.0
AgSbS2,mp-627601,9,-3.902548620625,3.637178521489007,-0.4256643763541668,536.4564476031263,1.5721,7.4457906436882855,13.579044425453393,2.0,1.0
CuAsPbS3,mp-628643,31,-4.45239502875,5.235308548450687,-0.6374047378124997,560.6012349255601,0.7984,7.704157,8.90744,3.0,-1.0
Cu6Hg3(AsS3)4,mp-6287,146,-3.9319268092,5.262596197581782,-0.4991814836999998,526.1603551327568,0.5413000000000006,8.62193717671986,8.621937698748699,3.0,-1.0
SrLi2CrN3,mp-629430,61,-6.545317324285714,3.6459252091953673,-0.971347178639047,712.3911560499921,0.9503000000000004,7.362858,10.5564,3.0,-1.0
RbHgSbSe3,mp-6300,14,-3.1821056645833337,5.264637858263646,-0.5319473128385418,813.3861525694036,1.1007,8.067339,11.525869,3.0,-1.0
InS,mp-630528,14,-3.90762202125,5.1825100558167465,-0.7952852228125002,188.25237739435056,0.43930000000000025,4.086218,11.198834,2.0,1.0
Cs3NaPb4,mp-630851,63,-2.600292889375,5.561349566274453,-0.24386193776580445,746.7663195079207,0.8477000000000001,9.631929297193007,11.361896,3.0,-1.0
Pb4SeBr6,mp-630927,8,-3.3768043890909087,6.410180025549384,-0.8160717529403407,359.3461050050674,1.9957,9.653538214484104,10.171355525012189,3.0,-1.0
Mg5(Si8Pd5)2,mp-634984,216,-5.198198759032258,5.35003671535995,-0.468997382580645,507.4985366416349,0.0,8.953302624783886,8.953302624783886,3.0,-1.0
Zn3(InS3)2,mp-637614,156,-3.7186955481818185,4.136047900294333,-0.980464867159092,248.2159985307693,0.006999999999999672,3.9062004916748703,18.784088,2.0,1.0
Sc9Ni5Ge8,mp-637866,71,-6.350816948636364,5.687079739550611,-0.7654929402272731,373.50369807968076,0.0,11.599317930453589,11.599317930453589,3.0,-1.0
Mo9Se11,mp-638048,176,-7.29339904,5.929396767841129,-0.4901083637890622,970.1111214993643,0.0,9.546662161649222,12.291015,3.0,-1.0
Nb2Tl4Se11,mp-638104,2,-4.493327914705882,6.05725889250875,-0.4871956644577203,1026.3299062305637,0.9648999999999996,8.183349,14.064124519500279,3.0,-1.0
Te3(PdBr)4,mp-638749,2,-3.724244267272728,5.84838906574981,-0.38814097727272734,640.6028934858588,0.8159000000000001,8.627044999999999,9.006812333094434,2.0,1.0
Cu3Mo2O9,mp-639719,62,-6.172323747678571,4.408545487184396,-1.5196169413392857,793.2727416774593,0.0,6.914778999999999,14.82603,3.0,-1.0
Cs,mp-639727,194,-0.8691894325,1.9158377244386973,0.02621293956896553,460.7795164044728,0.0,5.47406804326362,17.755878,3.0,-1.0
KIrO3,mp-639811,201,-6.060410810833332,6.325688663725887,-1.5232456561833336,879.8617887822328,0.0,9.582338,9.582338,3.0,-1.0
Mn2GeSe4,mp-640047,62,-5.60618989107143,5.106999019316381,-0.3304632187407636,648.1612809346493,0.0,6.401432,13.201312,3.0,-1.0
CsNa2Ge17,mp-640321,227,-4.18593357525,4.7316973887991765,-0.08012455822988471,992.291689323771,0.0,11.195705105126786,11.195705105126786,3.0,-1.0
Ba4Si23,mp-640551,223,-5.019152251851851,3.524599511242846,-0.11329648222222224,1126.255619243901,0.0,10.404287,10.404287,3.0,-1.0
In2Si(AgSe3)2,mp-640614,9,-3.833805205,5.288207860690376,-0.4184177183996208,594.8678149453342,0.47600000000000003,7.5073834322552075,12.830730341401456,3.0,-1.0
Cu(NO3)2,mp-640926,31,-5.937381683611113,2.571019100682288,-0.8842545883066669,484.54518752469215,0.017,5.133165,11.294523,3.0,-1.0
Sr19In8N7,mp-641775,225,-3.820569207352942,4.54455985615381,-0.5917186495096077,979.7474942408827,0.0,11.148327536573728,11.148327536573728,3.0,-1.0
Ca19In8N7,mp-642331,225,-4.1736160494117645,3.669140127563676,-0.7681109649017641,804.7006685659799,0.0,10.440383540958251,10.440383540958251,3.0,-1.0
Mg3Sn,mp-643067,176,-2.31789599375,3.4814984581887414,-0.11529299249999996,548.3859363294442,0.0,5.269493013135832,10.962628970759807,3.0,-1.0
Cu6PbSe2Cl5O8,mp-643203,12,-4.51545657909091,4.386176976054576,-1.0820798209539768,796.2816887078449,0.0,9.860812924562813,15.491206449105926,3.0,-1.0
SnHg2(SBr)2,mp-643460,14,-2.7265082246428567,5.804526584388946,-0.6069703105357149,851.1670572086609,1.9458,8.240903999999999,12.903375026367328,3.0,-1.0
Ba5(Ga3H)2,mp-643683,158,-3.1373625788461537,4.813474704445513,-0.5032933105569233,763.7718672683998,0.3889,7.807478617053395,14.468098000000001,3.0,-1.0
K5Te3,mp-644,87,-2.83797927375,3.0706971600999484,-0.9652420831249996,625.4446971263409,1.0611999999999997,10.329441138445148,10.329441138445148,3.0,-1.0
Co3TeO6,mp-645717,15,-5.93703643,5.72707894121125,-1.5050117172499995,696.5573710723147,1.0657000000000003,8.696215343297625,10.491443014403883,3.0,-1.0
VAg(PS3)2,mp-6462,13,-5.111443426,2.9716169120702234,-0.7533461262559527,461.7332085591044,0.028599999999999962,5.893056,10.820419000000001,2.0,1.0
Cu12Sb4S13,mp-647164,217,-4.341627980689655,4.990496139138392,-0.5190295920905171,554.4907086142858,0.0,8.964073070000042,8.964073070000042,3.0,-1.0
Cu3SbS3,mp-647606,217,-4.291135320714286,5.2881422447051465,-0.4560509134821429,513.2120941100928,0.0,8.735871912001228,8.735871912001228,3.0,-1.0
Sr5(InSb3)2,mp-649033,55,-3.780688540769231,5.088533536986965,-0.8018592202564102,912.6107228313084,0.06780000000000007,4.735054,14.991026000000002,3.0,-1.0
Ca5(InSb3)2,mp-649479,55,-3.846762305384616,4.721997483308661,-0.7463488976923079,816.2640492551288,0.1625999999999994,4.619324,14.433643,3.0,-1.0
CuSbPbS3,mp-649774,31,-4.3947172675,5.634736879714322,-0.6680798373958338,576.0745317553352,0.7827999999999999,7.885433,8.816155,3.0,-1.0
Cu3Mo2O9,mp-649957,33,-6.171435848392857,4.3944206845768266,-1.5187290420535715,795.8225250719996,0.0,6.890950999999999,14.881206,3.0,-1.0
Ca3(InAs2)2,mp-650513,58,-4.1510902411111115,4.191281407334596,-0.8003523833333333,514.6940390461589,0.0017000000000000348,4.461046,16.779957,3.0,-1.0
Cs3Bi7Se12,mp-650619,8,-3.8836512604545455,6.111686152130567,-0.6169519414508229,763.2294548316779,0.7048000000000001,13.417496679648185,14.056613733064339,3.0,-1.0
Si4Ag10O13,mp-651688,2,-5.4805581501851846,6.010221811733824,-1.5835038091820992,773.0566783311801,0.4972999999999996,8.112054836345504,11.601676640907481,3.0,-1.0
Re3S4Br,mp-652046,14,-7.5075527121875,6.7332689656456575,-0.8997442668750004,756.4090813418358,1.6803999999999997,6.456478,11.666838,3.0,-1.0
Re(SeCl6)2,mp-652695,43,-3.2021568893333328,2.9799668315370726,-0.9033194319205003,857.6534558612907,0.9031,8.862519897318709,12.724391098144462,0.0,1.0
CuAg7As4ClO14,mp-653450,9,-4.935586225185186,5.725635810283692,-1.1112625269417291,799.1479308799022,0.2108000000000001,6.950651441148232,16.77058423803527,3.0,-1.0
Tl2GePbS4,mp-653561,14,-4.1527717403125,6.097442118922612,-0.78390419625,889.8412646123758,1.9,9.053533999999999,10.662826040767287,3.0,-1.0
Re3S4Cl,mp-653579,14,-7.574525260625,6.462958992466918,-1.014601260720001,742.3620218116887,1.7043,6.467218,11.533017,3.0,-1.0
K3Cr11S18,mp-654008,12,-6.56411494875,3.4298361425195925,-1.1882231795390634,613.1322659212698,0.2612000000000005,10.879551434710717,16.471790614879062,3.0,-1.0
Nb6SI9,mp-654051,2,-5.4671839615625,5.300553565613766,-0.6048756089453127,1084.966565165308,0.0,10.356100634247381,11.996489454582159,1.0,1.0
BaCu4S3,mp-654109,62,-4.46251116,5.592551263016999,-0.8706652711718754,579.2382245081677,0.44730000000000025,3.985033,13.414042000000002,3.0,-1.0
SrIn,mp-655461,43,-2.641758998125,4.661909079273778,-0.4211765064583329,576.8558791656852,0.0,6.669846157451607,13.85719497721036,3.0,-1.0
Pb4SeBr6,mp-655489,44,-3.3757967527272728,6.452100757531315,-0.8150641165767047,357.0113535306604,2.0595,9.747941736552237,9.747941736552237,3.0,-1.0
KNb(CuSe2)2,mp-6599,40,-4.905679880625,4.4491256408113,-0.7314594759218744,429.1651416646495,1.4981,7.793591,10.032000226935056,3.0,-1.0
KNiPS4,mp-662530,136,-4.743705904285714,2.201865449181975,-1.0014514820102047,775.3440536895229,0.9735999999999998,8.411613000000001,10.958116,3.0,-1.0
Ta3In2Cl9,mp-662572,12,-5.268259390714285,4.838948282202728,-1.5281623092385712,749.15966793575,1.3106,9.589558203693953,9.795304520314009,3.0,-1.0
Mn(GaS2)2,mp-662815,15,-5.1701612697619055,3.600647279678134,-1.0116102779269294,892.7778808307614,0.4111000000000001,6.444419,13.065924231195705,3.0,-1.0
In10(Pb2S7)3,mp-662823,8,-4.2240791624324325,5.862232758342925,-0.9071735698817572,868.121245173069,1.0556,3.892579,15.976142510016803,3.0,-1.0