pretty_formula,task_id,spacegroup.number,final_energy_per_atom,density,formation_energy_per_atom,volume,band_gap,min_abc,max_abc,Dimension,Dim
AuF5,mp-30103,62,-2.8842249583333337,5.161419262657849,-1.1547862568250002,751.4346136990338,0.7890000000000001,5.024939,15.390607999999999,0.0,1.0
Ba(CuTe)2,mp-30133,62,-4.004808757499998,6.587845899390267,-0.7240115515000001,523.9027520831871,1.1894,4.469794,11.559345,3.0,-1.0
Be(N3O7)2,mp-30141,43,-6.262736927142857,1.925063385362949,-0.982091091275238,546.9574892383799,1.141,7.5879894974393585,14.260832378971608,0.0,1.0
Rb3Os2Br9,mp-30167,194,-3.6951269625,4.801335138442695,-0.8287976783928573,937.9432649712894,0.4909999999999999,7.641174174298737,18.549224,3.0,-1.0
Na6CoSe4,mp-3017,186,-3.513241488636364,3.1361553174416725,-0.8787072153977274,542.9437673615456,0.4154,7.207812,9.326321328073679,3.0,-1.0
Ca4Al51Cr7,mp-30174,164,-4.4673528237096765,3.036839563015841,-0.16706090209677424,1039.1046368853797,0.0,10.22451188455982,11.477399,3.0,-1.0
Mg2Al5Cu6,mp-30178,200,-3.818417494615385,4.985416017590662,-0.2396729353846154,564.3633280472153,0.0,8.263923,8.263923,3.0,-1.0
BaSi23,mp-30185,223,-5.239539006666667,2.3991237601289974,0.039677380416666935,1084.3037603811742,0.0,10.273466,10.273466,3.0,-1.0
Ba3Si23,mp-30186,223,-5.105909171346154,3.2054312415834407,-0.08517321173076854,1096.1165732533295,0.0,10.310639,10.310639,3.0,-1.0
Rb3CoO2,mp-30194,62,-4.017932401666667,3.7687539407748174,-1.2400572433333334,612.1535145824514,1.3335,6.288746,12.438482,3.0,-1.0
K2ReI6,mp-30216,14,-3.240190526666667,4.468774884575391,-0.5947015523333334,762.3706864251859,0.2237,8.050913000000001,14.022137942564145,3.0,-1.0
Na10CaSn12,mp-30252,217,-3.0173912852173914,3.8939784248038185,-0.2666528371014493,722.5967864014533,0.7610000000000001,9.791276286983633,9.791276286983633,3.0,-1.0
Na10SrSn12,mp-30253,217,-3.00556835,3.950367897137134,-0.2685741900000003,732.2663913101637,0.7736999999999998,9.834757690456842,9.834757690456842,3.0,-1.0
Ba3(LiSn2)4,mp-30254,12,-3.5502829393333326,5.324924602407432,-0.5190043528888888,433.2820959695106,0.0,6.899660157203398,9.967053714791195,3.0,-1.0
Sb2MoS,mp-30285,12,-6.1330544190625,6.261941159515848,-0.4888955748437498,788.1668140954097,0.0,6.614167911108548,18.79409749355273,3.0,-1.0
Al23V4,mp-30335,194,-4.703240034074074,3.146231289387196,-0.16680046481481536,870.1528608367363,0.0,7.678768729395162,17.040478,3.0,-1.0
SrAg,mp-30355,62,-2.5796393025,5.015307250641405,-0.3186206741666666,517.8000500253286,0.0,4.864516,16.617142,3.0,-1.0
Ca3Au,mp-30366,62,-2.80399716125,3.964173433691324,-0.4813268662499999,531.4842507097665,0.0,6.816944,9.916935,3.0,-1.0
Ca5Au2,mp-30367,15,-2.922795525,4.38463256069811,-0.5548294564285712,450.1616840961338,0.0,7.830483409609524,9.107773344645167,3.0,-1.0
Ca5Au3,mp-30368,140,-3.168727313125,5.777425581787952,-0.6875218106249998,454.86262103105486,0.0,9.200856754546066,9.200856754546066,3.0,-1.0
Sr7Au3,mp-30422,186,-2.6993395925000003,5.133306540415405,-0.5345382531666665,779.1029284070831,0.0,7.2069009999999984,11.172691912826602,3.0,-1.0
BaCu,mp-30428,194,-3.08261266,4.510555040852099,-0.07352391000000003,295.80170147940703,0.0,4.510180471429164,16.791219,2.0,1.0
Be17Ru3,mp-30443,204,-4.847606521125,4.176713100080338,-0.2779471376250001,725.832392209526,0.0,9.805868815037401,9.805868815037401,3.0,-1.0
CaCu,mp-30471,11,-3.1953041345,3.6284204845517487,-0.14290085949999956,474.23307461184714,0.0,4.233167,19.310770651178586,3.0,-1.0
Ca3Ga5,mp-30473,63,-3.159880445625,4.266022257691106,-0.5152208015624997,364.9967270717958,0.0,5.86476306014301,15.049048999999998,3.0,-1.0
Ca11Ga7,mp-30474,225,-2.7923783783333334,2.9489224634230777,-0.3891413118055552,1046.1490990960003,0.0,11.394699095488305,11.394699095488305,3.0,-1.0
Ca2Pb,mp-30478,62,-3.125554603333333,4.775951235744653,-0.5509389933333333,399.6404824661164,0.07709999999999972,5.153274,9.708041,3.0,-1.0
TaS3,mp-30527,11,-6.8661803870833324,5.726601602089683,-1.2969935794270846,482.1776801467412,0.0,3.364038,15.094649791756845,2.0,1.0
Ta2Se8I,mp-30531,97,-5.363993515,5.972564538247668,-0.5270062698863633,623.0493394764883,0.11470000000000002,9.495548543469036,9.495548543469036,3.0,-1.0
V(NiP4)4,mp-30540,15,-5.967237315714287,4.2975099563437285,-0.30928366938775503,603.7781729866863,0.0,10.181639262897207,11.0970314532437,3.0,-1.0
Nb(NiP4)4,mp-30541,15,-6.0220503207142855,4.379564641054354,-0.3156491043877553,624.2883892005873,0.0,10.289661555172213,11.226658509403457,3.0,-1.0
Ni4P16W,mp-30542,15,-6.120368526904763,4.943295971548031,-0.2779281948639458,614.1871798883221,0.0,10.244864357275793,11.161856336836495,3.0,-1.0
RbAg7S4,mp-30543,85,-3.3283795570833337,6.00192049052954,-0.4366807601388896,1072.1494128845347,0.4418000000000002,8.525210000000001,11.214376,3.0,-1.0
CsGa7,mp-30574,166,-2.869426365,5.327639119685349,-0.10791750380387954,387.0904275846818,0.0,10.503543803918463,10.503544207591313,3.0,-1.0
Sc3(MnGa3)2,mp-30652,62,-5.453788056136363,5.9992695714679956,-0.40929775880094027,734.1382235344597,0.0,8.09309,10.606638,3.0,-1.0
Sc3Ga2,mp-30666,140,-5.583792142,4.417556976639684,-0.5730724780000003,824.9060329802319,0.0,10.390424534557095,10.390424534557095,3.0,-1.0
Sc3(Ga3Fe)2,mp-30701,62,-5.366775799318182,6.16640581329831,-0.4480497911363641,716.1937623130272,0.0,8.154478999999998,10.42789,3.0,-1.0
Li13Sn5,mp-30769,164,-2.8853290338888886,3.484085279607199,-0.392892559351852,325.89569239963026,0.0,4.692528471143995,17.08969,2.0,1.0
Sr6Mg23,mp-30782,225,-1.6876364813793103,2.1689747379765696,-0.0689010099999998,830.4591164066428,0.0,10.550614417077423,10.550614417077423,3.0,-1.0
NaPb,mp-30792,142,-2.677643435625,5.945360983636157,-0.16399379229166655,1028.671882291136,0.0,11.768233542484955,11.768233542484955,3.0,-1.0
Na15Sn4,mp-30794,220,-2.037934011052632,2.3823571515672044,-0.15593029157894733,1142.6678991538738,0.0,11.407241585327627,11.407241585327627,3.0,-1.0
Na2Tl,mp-30795,20,-1.781323625,4.4264180698620725,-0.11767115388888882,751.3746197348296,0.0,8.379103073451716,11.806833000000001,3.0,-1.0
Sr2Pb,mp-30828,62,-2.904281285833333,5.302831800138086,-0.5404114269444443,479.03202256120363,0.036299999999999784,5.490783,10.268539,3.0,-1.0
Ba4Bi3,mp-30892,220,-3.6754378992857135,6.2977024514855815,-0.911725577857143,620.2921664538943,0.0,9.305493193137213,9.305493193137213,3.0,-1.0
Ga2PdI8,mp-30946,12,-2.5668324381818186,3.8520539418603854,-0.4369984622727272,543.6343236737353,1.4331,8.099230662398742,8.629537712817992,0.0,1.0
Ca7Tl3N2,mp-30961,65,-3.777595775,5.0673493719638865,-0.6918372353966665,302.0384402872483,0.0,4.886354,12.68880114500381,3.0,-1.0
CuTe2Cl,mp-30971,14,-3.3282543575,4.987957536594158,-0.4183394808150003,471.6650232369519,0.6017999999999999,5.162165,12.411599583825009,2.0,1.0
RbAuBr4,mp-30996,14,-2.5636204216666667,4.435532525910827,-0.7632667929166667,450.78156994470635,1.4886,6.374775,10.931938472200253,3.0,-1.0
K2(NbBr3)3,mp-31012,12,-4.543811266071429,3.9595398490312217,-1.1683075607857143,902.542224642637,1.0977,10.318272965747807,10.420172744677556,3.0,-1.0
Al45Cr7,mp-31019,12,-4.6574179734615395,3.226501467370505,-0.11660557653846125,812.2005725179395,0.0,10.927661501296836,10.971336725684523,3.0,-1.0
TaCuS3,mp-3102,62,-6.438972219999999,5.6110343231011965,-1.1637814398750002,403.2961926231983,0.42010000000000014,3.510507,11.951226,3.0,-1.0
CuTe2Br,mp-31036,14,-3.208892989375,5.224529778257015,-0.2032092218749999,506.8198877189172,0.7912999999999997,5.228464,12.775897526879001,2.0,1.0
CuTe2I,mp-31037,14,-3.09796644625,5.458839107636298,-0.12051115999999995,542.2544983591453,0.8797000000000006,5.232337,13.246577709212179,2.0,1.0
CuSe2Cl,mp-31038,14,-3.521073934375,4.0399382345288215,-0.4348537838618745,422.406494045385,0.8538000000000001,4.961405,12.059664524302821,2.0,1.0
KAuI3,mp-31045,14,-2.4548647375000003,4.857177776624302,-0.6636010711000004,843.4399355434867,0.6537000000000001,7.463625,13.52928284794523,3.0,-1.0
Hg3(SeBr)2,mp-31075,12,-1.957184598571429,6.831710959251387,-0.3605107228125001,893.9853338454933,1.3327,10.074361079112164,10.372387750397351,3.0,-1.0
Tl2TeI6,mp-31077,14,-2.2812055738888892,5.427899985811084,-0.3911297316666666,794.0590946479634,1.709,8.025117999999999,13.948468993349554,3.0,-1.0
Ca5Hg3,mp-31154,140,-1.802776523125,5.281777415948165,-0.4353964612499999,504.3824882290073,0.0,9.433106226747052,9.433106226747052,3.0,-1.0
Ca7Ni4Sn13,mp-31158,83,-4.208936835833334,5.749594670055293,-0.488762669375,594.5292194486,0.0,4.647142,11.310808,3.0,-1.0
Sc3Co2Ge3,mp-31191,63,-6.627119855,5.876386048177422,-0.7417290462500006,265.9932675192009,0.0,5.348265851111181,13.291056,3.0,-1.0
Ti3P,mp-31214,86,-8.132833385625,4.6983474562505165,-0.857892907767857,493.60029677284086,0.0,4.979036,9.956692,3.0,-1.0
PPdSe,mp-3123,60,-5.079910935,5.525360281270464,-0.3835512186383928,520.1671648086946,0.8557000000000001,5.866509,14.985614000000002,2.0,1.0
Sr5Mo2N7,mp-31231,2,-7.228540744642857,4.735939887460477,-1.09954091321381,510.528907761936,1.2542999999999995,6.496473,9.379644777998843,3.0,-1.0
Mn3(AgO2)4,mp-31239,155,-5.7534579853333305,6.4373369149686965,-1.2375835372341462,747.3269125382132,0.6228000000000002,9.07518871679179,9.075188769999773,3.0,-1.0
BaAs2,mp-31243,7,-4.5322164338888875,5.165007711446178,-0.7864805538888892,553.947675400257,0.4320000000000001,6.6850580000000015,12.773208,3.0,-1.0
In5S5Cl,mp-31263,11,-3.879510206818182,4.632884222909605,-0.9361266648986372,551.8790578894861,1.3680000000000003,3.979718,15.321096230945615,2.0,1.0
Ba(TeP2)2,mp-31275,62,-4.780208671071429,4.345351619845878,-0.5146777945408166,789.3851274461383,1.1796999999999995,6.5302169999999995,16.680432999999994,3.0,-1.0
Cd2PCl2,mp-31276,14,-2.8856908965,4.282650690736581,-0.9323374295182856,506.69650933847197,1.3983,7.853698,9.117773,3.0,-1.0
K3Bi,mp-31286,185,-2.1704048470833333,2.8958213543171563,-0.36509705933333336,1122.568313081022,0.024999999999999908,10.810899967287456,11.090686999999999,3.0,-1.0
Na8SnSb4,mp-3138,227,-2.7802044069230765,3.1501571375115383,-0.3922971339743592,832.5139112274722,0.2734000000000001,10.559309002058894,10.559309002058894,3.0,-1.0
Na2In,mp-31430,20,-1.90884985125,2.9313123270444343,-0.11518713013888901,728.7127806301547,0.0,8.261672597448111,11.748849,3.0,-1.0
Na4TlAu,mp-31470,69,-2.005083748333333,4.924116725257116,-0.18939318388888893,332.7129808819718,0.0,5.7586763600470725,12.926311982002135,3.0,-1.0
Ca3(GaPd)2,mp-31480,57,-3.9185405667857145,4.835984353577762,-0.7138613860714287,648.9995520099983,0.0,5.82647,13.974645,3.0,-1.0
K2SnBi,mp-31486,57,-2.865658176875,4.331044232117365,-0.3355571621250002,622.4745664124264,0.16769999999999996,6.6433100000000005,13.62514,3.0,-1.0
Mg9Sn5,mp-31503,146,-2.6359948860714293,3.942363360768703,-0.17525347714285694,684.2837443785706,0.0,8.883279564074181,8.883279943547203,3.0,-1.0
Sr11(CdSb2)6,mp-3195,12,-3.2712906179310344,5.323291727877646,-0.730957954942529,966.8237266241993,0.3131000000000004,12.762174507468545,16.855289546320883,3.0,-1.0
KAuSe5,mp-3257,72,-3.4592770975,4.697841046376923,-0.3358716867455357,891.963564010242,1.0703,11.151444490650752,11.151444490650752,3.0,-1.0
Ti19Se20,mp-32630,2,-6.735468522307693,5.9587436840308445,-1.0961716538514958,693.5251723559837,0.0,6.9190070000000015,11.324789325373786,3.0,-1.0
CuI,mp-32750,160,-2.95062086625,5.675146780688081,-0.13901122374999986,222.9020378915997,1.2487000000000004,14.268648020093984,14.268648077542773,3.0,-1.0
Cs(SbSe2)2,mp-3312,2,-3.8134260007142857,4.7960017868232745,-0.5081330346151474,479.37172604719535,1.3516,6.98988,10.116572485019669,3.0,-1.0
LiGa3Te5,mp-33338,146,-3.421640945,5.065476256694176,-0.453894942314815,1119.960256688143,1.0404000000000004,10.3848677995052,10.384868013142249,3.0,-1.0
KSnAs,mp-3481,186,-3.656024333333333,3.9402656545270087,-0.3963279310000001,196.15788619323527,0.339,4.180317494330066,12.961539,3.0,-1.0
KSnSb,mp-3486,186,-3.417252631666667,4.0771470618666585,-0.3342619510000002,227.7249639949981,0.2804000000000002,4.446802435091646,13.297939999999999,3.0,-1.0
Ge2Sb2Te5,mp-3534,164,-3.781222871111111,6.013807771165062,-0.09004922222222217,283.5211198070204,0.026499999999999524,4.264832125683847,17.999105,2.0,1.0
AgBiI4,mp-35909,74,-2.51076587,5.41146151853963,-0.3743257411111112,505.9848598947998,0.9912,8.985457627185163,8.985457627185163,3.0,-1.0
Na(ScI3)2,mp-36235,159,-3.8161148916666665,4.007271949526841,-1.246818656481481,724.6109101536058,0.0,7.795523290022613,13.768406,3.0,-1.0
FeCu3S8,mp-36345,14,-4.670197251666667,4.475648309267327,-0.6242354329166666,373.2447566925708,0.0,5.691733,12.791091996269007,3.0,-1.0
Cd(Ga3Te5)2,mp-36641,5,-3.313046801176472,5.286838374649413,-0.3410190320588234,567.4804269459881,1.0979,7.534128244306237,13.382823102022568,3.0,-1.0
Mn(NbS2)4,mp-3669,194,-7.343025646923077,4.690785756179305,-1.3929606034350133,483.6234287360797,0.0,6.7241919203914025,12.35084,3.0,-1.0
Cs2Mn3Se4,mp-3704,72,-5.5367352216666665,4.339976042951122,-0.7301163254669542,571.2171433718877,0.0,10.089657230839213,10.089657230839213,3.0,-1.0
Ti3AlC2,mp-3747,194,-8.41024293,4.207863242427707,-0.7626407166666667,153.59217918550473,0.0,3.081374725243589,18.678823,3.0,-1.0
Mg3(Al9Cr)2,mp-3778,227,-4.0788886384782606,2.8954221287958872,-0.09944081108695682,759.9800294552118,0.0,10.243280354129627,10.243280354129627,3.0,-1.0
Ti2SnC,mp-3871,194,-7.9795279975,6.244640856710579,-0.7226938504166665,120.43506897953577,0.0,3.1744227843313504,13.800438,3.0,-1.0
Zr2AlC,mp-3886,194,-8.16086417875,5.238953261954831,-0.6439247312499994,140.37543330757651,0.0,3.3303574529345936,14.614324,3.0,-1.0
AgSbS2,mp-3922,15,-3.99884521125,4.924522834606939,-0.5219609669791669,396.21866614658967,1.46,6.889070198976492,13.271300287448629,3.0,-1.0
NbAg7S6,mp-3926,7,-4.139312733928572,5.4629074928292525,-0.5130887150297616,632.476866146454,0.7723999999999998,7.453067999999999,13.353818705751436,3.0,-1.0
Rb2Mn3Se4,mp-4052,72,-5.537161113888889,4.0233611499665525,-0.7116240620378357,537.8538838712185,0.0,9.854378614752024,9.854378614752024,3.0,-1.0
YAl3Ni,mp-4054,62,-5.295738009,4.314691097890601,-0.5990709523333336,351.82682512611245,0.0,4.051387999999998,10.646697999999999,3.0,-1.0
Na3Sr3AlP4,mp-41095,186,-3.956499674545455,2.809473721927247,-0.8282160667532469,570.6065083576336,1.1234000000000002,7.398391,9.437009657255043,3.0,-1.0
Tl3PSe4,mp-4160,62,-3.65164366,6.215163955048102,-0.3414073209933037,1025.9147947160213,1.4838,9.471314999999999,11.298898,3.0,-1.0
Na5GeP3,mp-4172,14,-3.409675548888889,2.35135884626269,-0.3612148241534392,792.3895311303756,1.0516,7.401486999999999,15.470991943021787,3.0,-1.0
CrAgS2,mp-4182,160,-5.6655732625,5.0294932416963185,-0.8076774607291659,147.9080567251228,0.7568000000000001,3.5370242610510885,13.796750622026439,3.0,-1.0
Ca3AsN,mp-4192,62,-4.896160585,3.1926138267129844,-1.170482538476,435.15713363617317,0.8949999999999996,6.742422,9.569392,3.0,-1.0
SnPS3,mp-4252,14,-4.708083287,3.3710347598918244,-0.739717823589286,484.4699850693268,1.8218000000000003,6.630607,11.407352397316961,3.0,-1.0
CuTeO3,mp-4320,62,-5.23438909225,5.337929310609812,-1.238488291,595.1495623765578,0.001000000000000334,6.016914,12.882924000000001,3.0,-1.0
CuSbS2,mp-4468,62,-4.36802289375,4.898485394324236,-0.5744759828125003,338.22554465211607,0.7368999999999994,3.8249089999999994,14.449885,2.0,1.0
Ba(CuSe)2,mp-4473,62,-4.3035102714999995,6.337936591668305,-0.8816688464374998,442.6111865938847,0.4887000000000006,4.229588,10.868421000000001,3.0,-1.0
K3(Cu4Se3)2,mp-4647,12,-3.8162747294117634,5.204118827360504,-0.4574324313566173,350.80572460537286,0.0,9.227508830460419,10.123132353504225,3.0,-1.0
Zr2AlN,mp-4678,194,-8.3715435625,5.580413330073779,-1.1731812430949995,132.97387886662278,0.0,3.2622416143653434,14.42791,3.0,-1.0
Al7FeCu2,mp-4689,128,-4.5483423169999995,4.1866204149781945,-0.2595976139999997,589.8803965830764,0.0,6.319843,14.76901,3.0,-1.0
Sc3Fe2Si3,mp-4755,63,-7.27878048625,4.348194173805196,-0.7521110943750005,252.6703917570001,0.0,5.341844558249332,12.895738,3.0,-1.0
Sc(AlC)3,mp-4798,194,-6.8111293107142865,3.2729850674609304,-0.3469094971428563,164.3120570835339,0.0387000000000004,3.3616210907420845,16.789633,3.0,-1.0
Y4Al23Ni6,mp-4847,12,-4.963441157575758,4.055219963220393,-0.518139684141414,543.939008444624,0.0,8.167968396407089,18.339253241667887,3.0,-1.0
CsNa2Si17,mp-4877,227,-4.831319415249999,2.6684572744208883,-0.043567157979885,816.8582759554413,0.0,10.492699543271119,10.492699543271119,3.0,-1.0
CuSe,mp-488,194,-3.920187479166666,5.799783408539689,-0.12262840533854202,244.80581106853612,0.0,4.020848921965857,17.484592000000006,3.0,-1.0
Ti2AlN,mp-4978,194,-8.138463555,4.264332478435478,-1.266205542261667,106.47979237847862,0.0,3.0011153975027347,13.651209,3.0,-1.0
Na2B2Se7,mp-5004,15,-4.096221756818182,3.775967838702108,-0.4180882733096593,545.5915900948761,1.5382,8.283006194845564,12.070421506178649,3.0,-1.0
CuS,mp-504,194,-4.310282884166667,4.641682828973252,-0.5241846157291672,205.2261731960844,0.0,3.7965699417633534,16.440662,3.0,-1.0
SnGeS3,mp-5045,14,-4.5920148975,3.41448477585509,-0.7817010353749992,559.3578384439235,1.6936999999999998,6.919302,10.640132000000001,2.0,1.0
Cu4SnS4,mp-504536,62,-4.341988150833334,4.9618458514649495,-0.5310594838888897,670.8679151224818,0.029600000000000293,6.43703,13.648388,3.0,-1.0
In5(BiS4)3,mp-504646,12,-4.13377823975,5.502412862915976,-0.778558240625,957.1442621469592,1.4284999999999997,14.565975444910304,16.872890001439853,3.0,-1.0
LiCa2Ge3,mp-504670,58,-3.869069177083333,3.743371828288289,-0.5708681451388884,541.2154257823041,0.0,4.419848,11.378922,3.0,-1.0
Cu12As4S13,mp-504753,217,-4.397719669310345,4.612761784598715,-0.5020016717456903,532.4523318459678,0.0,8.843704199128045,8.843704199128045,3.0,-1.0
Li10Pb3,mp-504760,215,-2.5465133836538456,4.441532726760693,-0.22134647006410246,1033.381196088248,0.0,10.110055000000001,10.110055000000001,3.0,-1.0
Y3(SiRh)2,mp-504772,57,-7.376923458571428,6.119542997804804,-0.951401012857143,573.8508627744056,0.0,5.6299980000000005,13.026181,3.0,-1.0
LiYSn,mp-504790,186,-4.807493779166667,5.088427373851285,-0.6791718341666672,560.1416787630839,0.0,7.359106,9.374996262944801,3.0,-1.0
Cu3AsS3,mp-504884,217,-4.358651503928572,4.855923279473694,-0.447836073125,494.82465949286046,0.0,8.630270506314561,8.630270506314561,3.0,-1.0
Nb2Pd3Se8,mp-504898,55,-5.520434823846153,6.214697019594578,-0.6197004137499997,607.4704401819786,0.3087,3.630114,15.439151999999998,3.0,-1.0
Sc2V3Si4,mp-504941,92,-7.595106926666667,4.371057827933442,-0.7486722044444447,539.5686370808,0.0,6.630563,12.272863000000001,3.0,-1.0
InGaSe3,mp-504952,169,-3.8159340083333335,4.909655574270971,-0.5624312752395834,855.1956731786203,1.3286000000000002,7.1686213399777925,19.216025,3.0,-1.0
Sc5As3,mp-505002,62,-6.81746926625,4.6635777057532914,-1.1125066737499996,640.2689257466694,0.0,7.264237,10.765245,3.0,-1.0
CsMnAs,mp-505016,129,-5.14882013,3.959072432964714,-0.2434110475287365,220.42118002607072,0.0,4.297237,11.936437,2.0,1.0
Ti2NiP5,mp-505081,62,-6.8311387634375,4.444983010882215,-0.7514450108779771,462.18258976371766,0.0,3.3374300000000003,12.443616,3.0,-1.0
Na(CuO)2,mp-505090,62,-4.734948506499999,4.921280890237269,-1.134069207666667,245.7505720984201,0.0,2.981081,13.296173999999999,3.0,-1.0
Na2Hg3S4,mp-505121,61,-2.7152735411111117,5.652292937243563,-0.7783507637962962,911.9089680171628,1.3273,7.581266,14.249054999999998,3.0,-1.0
Cs6Fe2O5,mp-505147,12,-4.416325785,4.657677523634692,-1.4874990668335557,705.2750706717408,0.0,7.320839858648119,14.9409496640564,3.0,-1.0
NaTiCuS3,mp-505171,62,-5.337779903333334,3.433957635631572,-1.3830598193402786,446.03532738670793,0.1559999999999997,3.574099,12.9806,3.0,-1.0
NaZrCuSe3,mp-505172,62,-5.131067200833333,5.001285942992479,-1.0561848758940968,550.6788000555529,0.2970000000000001,3.861,13.756653,3.0,-1.0
NaZrCuTe3,mp-505173,62,-4.6242275995833335,5.553730410923662,-0.7256505484722222,670.4188552061261,0.004899999999999238,4.087478,14.786444,3.0,-1.0