pretty_formula,task_id,spacegroup.number,final_energy_per_atom,density,formation_energy_per_atom,volume,band_gap,min_abc,max_abc,Dimension,Dim
Cr11NiS16,mp-1226505,12,-7.0017977021428575,4.0660462156923485,-1.018529962142857,467.07357826377023,0.0,3.4577419999999996,21.54469231879263,3.0,-1.0
Cr24P11C,mp-1226632,25,-8.672932790277779,6.288460365100796,-0.3272087776190473,422.6640498879969,0.0,3.1773759999999998,21.46420492144102,3.0,-1.0
Cd4HgSe5,mp-1226897,156,-2.680409664,5.732505819977423,-0.5329299846718751,605.4314945055211,0.0655,4.410628091241882,35.936312,3.0,-1.0
CdBi8(Br5O4)2,mp-1226909,65,-4.333728406666666,7.04868962164332,-1.2827005033333334,638.728928527972,0.5924,5.5832809999999995,20.677378286404227,2.0,1.0
CdBi12(Cl7O6)2,mp-1226996,65,-4.659540543589744,6.858597731087997,-1.6824841133497437,801.0254164139018,1.1852,5.514359,26.484891758873573,2.0,1.0
Co10SnSb30,mp-1227035,12,-5.0093434673170725,7.6183510221134805,-0.15659256475609734,1901.0277684039374,0.0,7.906834419108889,32.89140104876192,3.0,-1.0
Ca5(Si2Au3)2,mp-1227364,8,-4.114980253666666,7.863231043689589,-0.6901439389999998,631.2234208607102,0.0,5.7701357835288425,26.702136009668532,3.0,-1.0
BiSbTe2,mp-1227463,156,-3.7017961483333335,6.9883063599044695,-0.12538679583333412,417.68786661173135,0.4796000000000005,4.3765576456778215,25.18001,2.0,1.0
SrZnSb2,mp-12275,62,-3.366238904375,5.7674698919203475,-0.5644320685416666,456.689063773795,0.0,4.432208999999999,23.060837,3.0,-1.0
Bi4IBr3,mp-1227510,36,-3.1755993875,6.200035206384768,-0.4262332031250001,644.1451952570873,0.6896999999999998,7.5256048459470035,20.633498,1.0,1.0
Bi4I3Br,mp-1227536,36,-3.058560170625,6.077101441863572,-0.3374224674999997,708.5462364161798,0.8254000000000001,8.038963038065358,20.851134,1.0,1.0
Be46Ir7,mp-1227597,156,-4.618267405660378,5.85762265167089,-0.20539939188679213,498.9533691947701,0.0,4.1768475879916895,33.02418,3.0,-1.0
Be46Rh7,mp-1227672,156,-4.388433475849057,3.7803896878846,-0.17026089320754711,498.5051989840789,0.0,4.176658059825463,32.997514,3.0,-1.0
Bi2(PbS2)3,mp-1227695,63,-4.4113165163636365,6.962068827831132,-0.7971393317045451,587.6708438593282,0.8640999999999996,7.134643931016107,20.928517000000006,3.0,-1.0
BaSr4(FeO3)5,mp-1227739,123,-6.350418724400001,5.487589877001157,-2.3085430334166674,609.4482532206113,0.0,3.9298780142784335,39.46156300000021,3.0,-1.0
Cd3Fe2Cu10(SnSe4)5,mp-1227787,42,-4.0202024365,5.510127913540648,-0.2535316722968751,981.5736905709416,0.0,7.090604461789488,21.421605982902264,3.0,-1.0
BaSr6Fe3Bi3O16,mp-1227908,107,-6.139593357586207,6.245527645247071,-2.38553758448276,455.58300844537285,0.0,3.81482209,31.421379242595076,2.0,1.0
Ba6Br2N3Cl,mp-1227977,164,-4.6943404275,4.9618459158589205,-1.3694282942000005,355.1572653792573,1.1473999999999998,4.168628219167548,23.599552,3.0,-1.0
Ba8Li13GaSb12,mp-1228109,8,-3.5565753755882348,4.710010245706101,-0.8288143670833338,958.841824014429,0.0,9.487249425984857,21.205733826635896,3.0,-1.0
Ba4TiNb9O18,mp-1228214,123,-8.6419684078125,6.501975311372036,-2.926184059869792,439.6082204732399,0.0,4.209969999999998,24.803205,3.0,-1.0
Ba5Co4PtClO13,mp-1228254,194,-5.9590675368750015,6.065148718910384,-2.0819619072712503,745.1829149257663,0.0,5.826717299655613,25.344535,3.0,-1.0
Ba4Y2Cu7O15,mp-1228264,65,-6.1594780725,6.061731266219473,-2.1241832772172606,386.7821427231065,0.0,3.873672,25.61177722637281,3.0,-1.0
Ba4Y2Cu6NiO15,mp-1228275,38,-6.120429387678572,6.034886864870955,-2.1023870920386907,774.3348063362234,0.0,3.8851620069065333,25.80475371499331,3.0,-1.0
Ba4Y2Cu5PdO14,mp-1228291,47,-6.242699543461539,6.2826764185553134,-2.1763896484935903,363.48762267757024,0.0,3.8319339999999995,24.021413,3.0,-1.0
Ba3SrTl2Cu2HgO10,mp-1228298,107,-5.199877913684211,7.090041449444108,-1.8773280139035096,326.96352383929434,0.0,21.665800139383087,21.665800139383087,3.0,-1.0
Ba4Y2Cu7O15,mp-1228315,65,-6.155742993928572,6.0243477658841025,-2.1204481986458332,389.1822814475155,0.0,3.912529,25.68283342758133,3.0,-1.0
Ba3Sr(HgO2)4,mp-1228453,150,-4.584121893958334,6.893485410629988,-1.919969459375,1033.3661386874014,2.1491,6.854327849423312,25.397668,3.0,-1.0
Ba4Ti3PtO12,mp-1228478,156,-7.524712378833332,6.51964601622266,-3.105649743583333,825.2098079301642,0.9808,5.786445797673213,28.458365999999998,3.0,-1.0
Ba2Ti5(Bi2O9)2,mp-1228482,139,-7.492720375862071,7.2151430363555535,-2.8272887406609204,376.9567133141861,1.3680000000000003,3.92666659,24.605168262495127,2.0,1.0
BaNb6Bi6Pb2O27,mp-1228615,139,-7.3825918361904765,7.744866683939416,-2.4319901998511915,599.269058374036,1.2059999999999995,3.95970478,38.32290971263376,2.0,1.0
Ba3Ga4Sb5,mp-1228664,31,-3.762567017291667,5.525306724398263,-0.5530419589583335,1562.3804418135776,0.0,4.493311,25.685976999999998,3.0,-1.0
Ba10Br4N5Cl,mp-1228723,166,-4.672670654,4.9898077676200465,-1.3349893352580005,598.473514736911,1.1050999999999995,4.17551947,39.70955581481289,3.0,-1.0
Ba10BrN5Cl4,mp-1228725,166,-4.7721579985,4.766678093151352,-1.4919380142469998,580.0328598596241,1.0459,4.16192951,38.74087889645581,3.0,-1.0
Ba2Sr(ZrSe3)3,mp-1228764,6,-5.796946351333332,5.369748733957153,-1.6213644778506946,1665.6709803915148,0.3380000000000001,4.054668,27.352317007230678,3.0,-1.0
Ba10IBr4N5,mp-1228784,166,-4.5904335955,5.083002475017347,-1.2392441948450001,617.3765499044729,1.5238999999999998,4.20880445441311,40.31737122824792,3.0,-1.0
Ba12MnRu5(ClO6)4,mp-1228797,164,-6.47385834826087,4.9737376218978016,-2.478383789318591,912.7803211805573,0.0,5.917200416321556,30.102536999999998,3.0,-1.0
BaFe12O19,mp-1228836,186,-6.6550344034375,5.009713414473238,-1.922826612929688,736.8147803661961,1.1823,6.010752062485357,23.54887,3.0,-1.0
Ba5BiPb4O15,mp-1228869,12,-5.830334449,7.862907123552658,-2.1495160981499986,829.7118403212743,0.0,6.221522337685046,22.136620480649004,3.0,-1.0
Ba5BiPb4O15,mp-1228896,2,-5.831303075399999,7.819827681820091,-2.1504847245499987,834.2827240202895,0.0,6.1711300000000024,25.42433836942681,3.0,-1.0
Ba10Ru3W(Cl2O9)2,mp-1228911,156,-6.403616566944447,4.918500993513859,-2.596466953626111,773.1696557271738,0.2730999999999999,5.962760314653273,25.11016,3.0,-1.0
Ba10Fe8Pt2Cl2O25,mp-1228981,187,-6.255226392978723,5.7999636795863525,-2.3003990433568084,767.6001560494327,0.0,5.928443905678201,25.218717,3.0,-1.0
Ca3(InGa2)2,mp-1229014,156,-3.0817730855555565,4.846249248949303,-0.4559342955555555,430.88327114826484,0.0,4.6784768080053585,22.731081,3.0,-1.0
Ba2Sr(IrO3)3,mp-1229074,187,-6.657254884166666,8.38194681028062,-1.9736746580277784,858.1444585552756,0.0,5.777060243191254,29.690396000000003,3.0,-1.0
Ba6Ca12Cu15Hg3O37,mp-1229082,12,-5.559594424794521,5.726573086904013,-2.065487753167808,1000.9316410361812,0.0,8.610544744704889,23.104493863183087,3.0,-1.0
Ba5Na2Ru3O14,mp-1229142,4,-6.401647956041668,5.48874420779035,-2.2563711180902786,762.2777945610339,0.03820000000000024,5.913747,24.74095100000001,3.0,-1.0
Ba4Nb25O40,mp-1229163,10,-9.017414179130435,6.24524858734365,-2.7850210186956508,933.7849886808742,0.0,4.152923,33.53997399013763,3.0,-1.0
Ag3Bi7S12,mp-1229165,12,-4.1642199104545465,6.569616308680433,-0.6458659748863643,548.8054342214489,0.6759000000000004,7.036393708878434,20.451321745994264,3.0,-1.0
Bi14Pb4Cl8O21,mp-1229189,8,-5.181831613617021,7.554322680466987,-1.5967071183474466,961.4926021020219,0.4611999999999998,15.224402387587011,19.532736991965976,2.0,1.0
Ba2Ti5(Bi2O9)2,mp-1229191,9,-7.4681937474137925,6.916745315183357,-2.802762112212644,786.4382686191846,1.7691,5.581248659222504,25.383889330155732,3.0,-1.0
Ba10Co7(IrO10)3,mp-1229198,8,-6.2222536214,6.820499321281247,-2.02794985765,692.027774732081,0.0,5.7755156803964285,23.95196735361586,3.0,-1.0
Ag6Hg(P10I)2,mp-1229218,4,-4.490972388965519,4.400143558373095,-0.05604967022167553,1299.0149759671294,0.9969,6.795428,28.087919,3.0,-1.0
Cd4FeCu10(SnSe4)5,mp-1229234,5,-3.889873906,5.434618180538322,-0.3118809697968743,1012.4955354100523,0.0,7.1585963390164675,26.33526480176271,3.0,-1.0
Ba12SrCa3(Ru2O9)4,mp-1229266,164,-6.770077696666666,5.737474775577196,-2.4738609471944444,937.8118738314404,0.0,5.987631635825387,30.20472800000001,3.0,-1.0
Ba6Ca15Cu18Hg3O43,mp-1229281,12,-5.5892640041176485,5.5390602322958085,-2.073285186573529,1156.7899249757265,0.0,5.4792886493021085,26.04899904887634,3.0,-1.0
Cd2Fe3Cu10(SnSe4)5,mp-1229296,42,-4.24827734325,5.491053695969106,-0.29292875104687466,967.8773570675827,0.0,7.034738065196457,21.384607727461926,3.0,-1.0
Mn2(CN2)3,mp-1245400,15,-8.615588137272727,3.3478318014339936,-0.09571648578094027,228.1107938177885,0.0,5.291208119588664,28.109928740892162,3.0,-1.0
Ga2(CN2)3,mp-1245974,167,-7.593511068181818,3.2960148505626234,-0.1888414108436352,261.4917075231369,1.8736,5.686991187973735,28.007952592370877,3.0,-1.0
Sb2(CN2)3,mp-1245995,167,-7.515235552272728,3.041552940705095,0.08959878461090978,397.0072066705394,2.0844000000000005,6.879812561721178,29.051500083603297,3.0,-1.0
Zr2AgN3,mp-1246060,166,-8.530658669444444,6.402359362730842,-1.2330963650788884,258.587832141264,1.6219,3.343552201922377,26.70921828,3.0,-1.0
Ti2(CN2)3,mp-1246224,167,-8.898200021363635,2.6824410786901494,-0.6085491796315149,267.18558317291064,0.0,5.6488643123577225,29.026837734009405,3.0,-1.0
Bi2(CN2)3,mp-1246532,167,-7.541992307727273,4.427545356270873,0.019393496429092816,403.57575576657547,1.9791,6.8366525732236205,29.909855155100175,3.0,-1.0
CoPtO2,mp-1277413,166,-5.98362080625,10.467485461933821,-1.0344816956249998,181.491814857406,0.0,2.9121255168520808,24.614663964835373,3.0,-1.0
Sb8Te3,mp-12826,166,-3.9256678136363634,6.290467046902225,-0.06549393090909078,358.18520817111437,0.0,21.75575723700008,21.755757338331428,2.0,1.0
Li2NiO2F,mp-1283454,1,-4.886638538333333,3.968271757439221,-1.9956612908927769,206.8377850285905,0.0,2.8448552242363765,28.560970266866466,3.0,-1.0
NaMnO2,mp-1283729,2,-6.34072366,4.003890746602504,-2.0190137916121262,182.3600582767163,1.2327999999999997,2.9201900675279684,21.84829646255147,3.0,-1.0
Ba2YMn3O8,mp-1293017,123,-7.454446175714287,5.812869090792757,-2.689281498465156,375.0047203131692,0.0,3.977414003688452,23.704719000120026,3.0,-1.0
Sr4CaMn2(SO3)2,mp-1293054,115,-6.322160784333334,4.205704451013055,-2.579146779109801,521.6184409882746,0.0,3.911056000785978,34.097223000171056,3.0,-1.0
KMnIO6,mp-1294897,5,-5.3457942138888885,3.792758598012648,-1.3914319145683522,555.0436322972629,0.4844999999999999,5.125919881687448,24.44415538733912,3.0,-1.0
Ba2YTlCo2O7,mp-1303920,6,-6.357749572692307,6.711681439042032,-2.2920296015705133,394.77050472204314,0.0,3.9351083745431965,25.385553851639987,3.0,-1.0
CoBi6(SO8)2,mp-1306933,5,-5.9852966765,7.185150837904823,-1.84725064095,1509.5321304322272,2.3034000000000003,5.667343927797747,31.21206625614857,3.0,-1.0
Sr3NbCoO7,mp-1308917,6,-7.011269355833334,5.206106589958587,-2.834292282812501,671.978747474699,0.0,3.9822051725414647,42.31124814137532,3.0,-1.0
Nb12O29,mp-1470,63,-9.009256412560976,4.348856317923931,-3.049745215640244,1205.7226655355867,0.0,10.753109205551343,29.500857,3.0,-1.0
GeI2,mp-1540935,166,-2.8975014555555565,4.336280721578383,-0.3404837605555559,375.0319130096666,2.066,4.304630600000001,23.37038236000002,2.0,1.0
Li7Mn4CoO12,mp-1641094,2,-6.206711692291666,4.007133177398774,-2.0622038271164165,430.3625913287567,0.0,2.9306185663579627,24.69205135416337,3.0,-1.0
Li4Co5NiO12,mp-1648324,1,-5.5222624950000005,4.4870445215836865,-1.5053805519696974,424.19093178597177,0.0,4.929469252852076,20.12708309856195,3.0,-1.0
Ba4Sr(FeO3)5,mp-1651542,107,-6.3201481838,5.902032224719084,-2.2507337436166663,650.5631299587037,0.0,5.665095839673147,20.66368764251633,3.0,-1.0
Ba4Sr(FeO3)5,mp-1666361,139,-6.3197490384,5.891171366254298,-2.2503345982166683,651.7624965426339,0.0,5.672427039410291,20.64800376040689,3.0,-1.0
Li7Mn4CoO12,mp-1667092,6,-6.205558109166668,3.9603068262204153,-2.061050243991417,435.45116418936544,0.0,2.8883624454114094,29.132130996038022,3.0,-1.0
Li7Mn4CoO12,mp-1667170,2,-6.1952669147916675,3.9614803291600196,-2.050759049616417,435.3221711921091,0.0,2.879733552248888,23.057225576668174,3.0,-1.0
Ba2CdTe3,mp-16904,62,-3.6927263666666654,5.468412246853906,-1.3276039983333334,935.1093888310958,1.4015999999999995,4.819325,19.381728,3.0,-1.0
Ba2MnTe3,mp-16905,62,-4.987634027083334,5.255348511308312,-1.2493755403591955,900.381635137701,0.8427000000000002,4.794748,19.121793,3.0,-1.0
Sn2Sb2S5,mp-17835,62,-4.422204965833334,4.520294025969337,-0.6841943520138898,942.2799299564607,0.7852000000000006,3.9688760000000003,20.601564,1.0,1.0
K2Sn2Hg3S8,mp-18115,41,-3.4711990939999997,4.348283674180082,-0.8755389850666665,896.5918122658569,1.4334,6.71082042207553,20.045983,3.0,-1.0
ZnS,mp-18377,160,-3.4973537125,3.987164052094539,-1.1309869740625005,405.9511544119695,2.0316,31.54953982281054,31.54954001275938,3.0,-1.0
Ba2MnZn2(AsO)2,mp-19045,139,-4.9999115708333335,5.8667139837570454,-1.4834834656239084,727.1427339249725,0.0,4.289319926565631,39.52235147102511,3.0,-1.0
Ba2Mn2Sb2O,mp-19213,194,-5.646345102857143,5.2814730328178765,-1.1744419246400497,404.98903708240687,0.010299999999999976,4.8019275839246065,20.28063000000022,3.0,-1.0
Sr2FeO3F,mp-19293,129,-6.281030315178571,4.841085173494879,-2.956242897074761,817.9589978848088,1.2045000000000003,5.55761314,26.48225169,3.0,-1.0
Ba6Na2V2Ru2O17,mp-19501,194,-6.736845203275862,5.195806751847978,-2.6102233469971265,924.2313205142447,0.4445000000000001,5.943504475019767,30.210984999999997,3.0,-1.0
CaMnSb2,mp-21131,62,-5.26529493125,5.5611397355749945,-0.4089677236637934,404.3432496965529,0.0,4.376915,21.075939,3.0,-1.0
Zn(InS2)2,mp-21409,164,-3.8757220221428565,3.962928269946509,-0.9249976596428569,354.74499748974813,0.00010000000000021103,3.923560817595415,26.608769,2.0,1.0
Sc2Te,mp-21576,62,-6.090823220277778,5.046726004053262,-0.8214101736111109,858.8226448022041,0.0,3.9421150000000003,20.277561,3.0,-1.0
Y6Te2Rh,mp-21621,62,-6.660713445,5.825104885323085,-0.8329649550000006,1016.5914776848813,0.0,4.024108999999998,21.881249,3.0,-1.0
CaGeAu,mp-21710,62,-4.023103035,7.927164555746679,-0.7222666099999999,778.4523530924664,0.0,4.5571209999999995,21.76446,3.0,-1.0
Ca2Sn5Pt3,mp-21774,62,-4.952129458,9.227192203823883,-0.7249512414999998,906.2557259150833,0.0,4.509855,26.795134,3.0,-1.0
CaCuGe,mp-21779,62,-4.045946023611111,5.01962690144158,-0.470001221944444,699.7171633241287,0.0,4.368506,21.358037,3.0,-1.0
In9Pb4S17,mp-21934,55,-4.186469714666667,5.74064339457507,-0.8979173951041663,1392.6525730598432,0.0,3.9049650000000002,23.026193,3.0,-1.0
Fe7SiO10,mp-22635,11,-6.863588357777778,4.792881047932527,-1.9724223095833333,401.1962646188621,0.0,3.049719,21.92385724169889,3.0,-1.0
Bi4Te7Pb,mp-23005,164,-3.702815936666666,7.517304167376888,-0.2631583683333331,427.72483202889856,0.5997999999999992,4.474905761368947,24.664143,2.0,1.0
BiTe,mp-23224,164,-3.7137825233333337,7.727114050485022,-0.19711490333333376,433.98213066372887,0.019299999999999432,4.4809495383323625,24.9575,2.0,1.0
Ba5Co5ClO13,mp-23580,194,-5.9453764485416665,5.663034195347729,-2.1031287320629164,718.250605630165,0.0,5.784792149294994,24.783912,3.0,-1.0
TaBi4ClO8,mp-23602,60,-6.608116310357143,8.627864882213949,-2.134038482018572,908.6668117295512,1.3359000000000003,5.5243660000000006,29.425674,2.0,1.0
NbBi4ClO8,mp-23630,60,-6.402146957678572,7.919664637622149,-2.053531457197144,916.0828653225348,1.3611,5.555211,29.311978000000003,2.0,1.0
V6P7O24,mp-26766,11,-7.578605787432432,3.418377113028188,-2.6002163631081068,880.650167078653,0.0,5.287082,26.638828999999998,3.0,-1.0
Ca9Zn4Bi9,mp-27262,55,-3.296548569318182,6.236438017029825,-0.6556539261363642,1333.0037484418351,0.0,4.691276,22.270415,3.0,-1.0
BiI,mp-27708,12,-3.000502120625,5.909474070789374,-0.2934786581250002,755.0586625254242,0.9808,8.274907719787635,21.61785074194625,1.0,1.0
W10O29,mp-27732,10,-7.519057228974358,6.758773214582207,-2.1550684265705105,1131.328462186436,0.0,3.857442,23.963289078601818,3.0,-1.0
BiSe,mp-27902,164,-4.00829895,7.561528230492271,-0.3153260561718749,379.3965466856185,0.0,4.25832197445731,24.159378,2.0,1.0
GeI2,mp-27922,164,-2.898129468888889,4.112266268035377,-0.3411117738888893,395.4616623444989,2.0732,4.307384027838705,24.611981,2.0,1.0
Li9Ge4,mp-27932,63,-3.0887121084615385,2.8622827887481663,-0.3446800146153848,409.61602288019685,0.0,4.473940934864139,23.740068,2.0,1.0
P2W5O19,mp-28031,4,-7.4987154382692305,5.5972862442061295,-2.3244905159958797,762.5190660955998,0.0,5.405354,21.069460512420388,3.0,-1.0
Ca5(AlBi3)2,mp-28088,55,-3.732838295384615,6.1020310918935,-0.5898108400000001,820.8689512742337,0.0,4.587922,23.580293,3.0,-1.0
Ca5Ni15B4,mp-28170,194,-5.4696138989583325,5.991203996517216,-0.32596320381944466,623.0814476725411,0.0,5.0843645316642085,27.831771999999997,3.0,-1.0
Ni11As8,mp-28227,92,-5.615747407368421,7.960881335882628,-0.30761842210526275,1038.7651230053675,0.0,6.8949380000000025,21.850261,3.0,-1.0
Tl4SiSe4,mp-28334,15,-3.670111123333333,6.7849101169365085,-0.4639364732638889,1137.0217216455994,1.4648000000000003,7.149962784351888,25.28451897190193,3.0,-1.0
CaAsPt,mp-28340,109,-5.264623843333333,7.790818298999901,-1.0194151783333334,396.5482792312579,0.0,22.378821121380724,22.378821121380724,3.0,-1.0
Na2(GaSb)3,mp-28413,62,-3.2812053253125,4.717965587878608,-0.2686309927083337,873.4661642800708,0.3245,4.353791999999999,27.266591,3.0,-1.0
Ge5(Te4As)2,mp-28487,164,-3.8868174413333336,6.121941162649032,-0.048165206333333314,416.0455790033497,0.33619999999999983,4.200255654977207,27.2307,2.0,1.0
Mo9O25,mp-28777,13,-7.0917234675,3.8607292515635385,-2.033681585477941,1086.8411868823891,0.0,5.581418,28.410029127789873,3.0,-1.0
P2Se5,mp-28860,14,-4.053405596785714,3.366905947116952,-0.00967286662308656,901.0612343647696,1.3683999999999998,6.1854949999999995,22.238692,0.0,1.0
Ba2(SnSb2)3,mp-29087,62,-4.111819357954547,5.9095979706491795,-0.4172134793181822,1530.0972460792843,0.0,4.4935849999999995,25.00858,3.0,-1.0
P2W7O25,mp-29182,14,-7.49585765,5.853253977354716,-2.2835607755409657,992.2588452496138,0.0,5.4161480000000015,27.81457201078341,3.0,-1.0
PW3O11,mp-29318,19,-7.496238066833332,5.791657779483143,-2.300439038321428,869.8701559869874,0.0,5.396580999999999,24.048638,3.0,-1.0
CsBi3S5,mp-29531,62,-4.257227603333333,5.627651414579357,-0.9316215326173372,1086.0523251310983,1.4432,4.121071,21.514039999999998,3.0,-1.0
CaSnAu,mp-29561,62,-3.834320984166667,8.000101864966343,-0.7379698925,1476.8420950560749,0.0,4.781951,37.312821,3.0,-1.0
Ba(MgSn)2,mp-29622,129,-3.1111335735,4.689537491122034,-0.4833986455000002,599.63340858194,0.0,4.9484,24.488164,3.0,-1.0
GeSb4Te7,mp-29641,164,-3.7150377125,6.130301643130567,-0.11985943541666624,393.54735533858354,0.5217999999999998,4.324243864759364,24.302223,2.0,1.0
GeBi4Te7,mp-29644,164,-3.723068148333333,7.191415849898384,-0.20754551458333328,416.0370625128009,0.7192999999999996,4.412693910689252,24.671398999999997,2.0,1.0
Ta4Mn11O21,mp-29747,165,-8.635124718333334,6.251063730827048,-2.5551384717504706,884.1051338537462,2.2065,5.4507025192180505,34.361202,3.0,-1.0
Bi2W2O9,mp-29782,60,-6.887368167115384,8.408666997050526,-2.0254211841346152,734.3356086931703,2.0546,5.449977,24.594694,3.0,-1.0
PW5O17,mp-29926,19,-7.505507135434782,6.053946825646437,-2.2609318667313656,1340.910582087451,0.0,5.435882,36.75418300000001,3.0,-1.0
Ba(GaSb)2,mp-29938,62,-3.7747335572500003,5.679704309570072,-0.52810069425,1216.918072474674,0.03819999999999979,4.517796,25.879147,3.0,-1.0
Cs3Sb5O14,mp-29970,55,-5.731382355454546,5.662815094418961,-1.9690855427860503,1444.487970856748,0.9143,7.461967,25.906944,3.0,-1.0
LiNb6Cl19,mp-29985,51,-5.09183741,3.000147530278175,-1.7710711921258977,1370.4156619685955,0.732,6.881725,28.636496,2.0,1.0
Rb2Bi8Se13,mp-30145,11,-3.937896876304348,6.4700183866011285,-0.5236276661073372,1472.7983893995583,0.5645000000000002,4.221018,25.28277317662057,3.0,-1.0
Sc6AgTe2,mp-30203,62,-5.834969833611113,4.921318466827358,-0.6000840010185189,854.0761797286017,0.0,3.864185,20.486728,3.0,-1.0