pretty_formula,task_id,spacegroup.number,final_energy_per_atom,density,formation_energy_per_atom,volume,band_gap,min_abc,max_abc,Dimension,Dim
HfGa2Ni,mp-30269,107,-5.99080347975,10.185383024683508,-0.5424243460000007,614.024853866064,0.0,9.600768969171638,9.600768969171638,3.0,-1.0
Bi4O7,mp-30303,2,-5.6952803886363625,8.908191794561679,-1.578935341250001,353.3946980285798,0.9009999999999998,6.82618,7.909723375774907,3.0,-1.0
Mg5(Si8Pt5)2,mp-30324,216,-5.615279172258064,8.189625235172716,-0.5986500861290323,511.30986361259374,0.0,8.975659926991439,8.975659926991439,3.0,-1.0
Mg13Au41,mp-30407,193,-3.240040511203704,14.411605649375447,-0.3690630336111112,1933.7984334823082,0.0,9.62161,15.234086450820902,3.0,-1.0
Rb4Sn2Au7,mp-30416,166,-3.0356725323076925,7.842930186819188,-0.35425324153846177,414.5683270868065,0.0,10.715068466226896,10.715068557642736,2.0,1.0
BaCdBi2,mp-30426,139,-3.1647427875,7.923136933959311,-0.509260485,279.87398207641115,0.0,12.742731425760295,12.742731425760295,3.0,-1.0
BaZnBi2,mp-30427,139,-3.21022908375,7.75155765847513,-0.4705333187499998,265.9313986490715,0.0,12.574025625563955,12.574025625563955,3.0,-1.0
Ba(RhPb2)3,mp-30432,63,-4.871437949,10.525456053021555,-0.2426602629999998,533.003949780374,0.0,4.601793,14.39701918677908,3.0,-1.0
Bi4Rh,mp-30467,230,-4.726969514166667,10.669590685107751,-0.14208049216666724,1753.348321234545,0.0,13.157196602094347,13.157196602094347,3.0,-1.0
CaHg11,mp-30475,221,-0.4897083955555556,11.191719736720971,-0.04420140430555562,999.9841000842696,0.0,9.999947,9.999947,3.0,-1.0
Sr3Sn13Rh4,mp-30517,223,-4.84790183875,7.492643445136223,-0.5153963709999999,982.9901666702534,0.0,9.942976,9.942976,3.0,-1.0
K(IrO2)4,mp-30546,12,-6.691267504615384,9.293667937236387,-1.2736179371538463,167.23221079982991,0.0,7.296598093560929,9.925278778703044,3.0,-1.0
Ga4Ni3,mp-30655,230,-4.603115645714285,7.9903945879942215,-0.3955739242857145,756.4073128024048,0.0,9.941666794503222,9.941666794503222,3.0,-1.0
Cd5Cu2,mp-30696,194,-1.808830957142857,8.600399226431358,0.021577920000000108,532.2336724152411,0.0,8.340088798650587,8.835485,3.0,-1.0
Hf11Ga10,mp-30703,139,-7.150303162380951,11.142882148421226,-0.4926825730952386,792.9839681564367,0.0,10.402322164965812,10.402322164965812,3.0,-1.0
Zn36Ga5Ni8,mp-30707,215,-2.3343540738775506,7.5479376089157535,-0.156143034846939,698.0319342799733,0.0,8.870711,8.870711,3.0,-1.0
Zr5Ir3,mp-30749,178,-9.398240856666666,10.804021321677556,-0.7415165554166675,952.3990417774916,0.0,7.990202075024447,17.225538,3.0,-1.0
NbZn2,mp-30798,194,-4.368700328333333,8.152689758359736,-0.1617695749999998,364.5452817678247,0.0,5.070593812698667,16.372055,3.0,-1.0
Pd13Pb9,mp-30826,15,-4.835405046818182,12.340845582500599,-0.25575563045454497,874.1479815812047,0.0,9.265116412790992,14.204503559629286,3.0,-1.0
Sn3Pt2,mp-30846,194,-5.337116579,11.119427449734754,-0.503010382,222.89942354091409,0.0,4.414051856564103,13.210019,3.0,-1.0
Y2Sn5Rh3,mp-30864,36,-6.2186400785,8.338234630472876,-0.7112675673333329,430.18987245296415,0.0,7.245634,13.490437364182748,3.0,-1.0
ZrZn22,mp-30888,227,-1.6466260441304348,7.154862088977097,-0.07001473760869582,710.2843856307118,0.0,10.014956988698057,10.014956988698057,3.0,-1.0
Hg3SO6,mp-30890,144,-4.250973819333334,7.71350563852146,-1.265171441895833,471.3473776485137,0.5752,7.176333523649664,10.568302000000001,2.0,1.0
Hg4As2O7,mp-30929,62,-4.2679323355769245,7.308125985337499,-1.1715772162500002,967.2214286847952,1.1358,7.539447,12.485596000000001,1.0,1.0
ZrBi,mp-30933,63,-6.592741283333333,9.714647145159038,-0.373873813333334,307.886304082773,0.0,5.7923326138226034,14.545829999999999,3.0,-1.0
Hf2Si4Ru3,mp-31022,15,-8.556828099722223,9.550419923808407,-0.8414055725000004,537.2829996723675,0.0,9.873559659229796,13.316029775593215,3.0,-1.0
Sc3(ReSi2)2,mp-31027,15,-8.010409530277776,6.971781164511348,-0.7228853341666652,590.3280071142399,0.0,10.186909509882033,13.746163075933625,3.0,-1.0
Ba2Tl7Au,mp-31071,62,-2.6563010545,9.801455714693716,-0.2919616484999999,1289.134859498664,0.0,5.31957,22.488205999999998,3.0,-1.0
ZrGe2Rh,mp-31084,55,-7.007007733958332,8.387705001688941,-0.7174916814583329,806.3269762754214,0.0,8.08907,10.585483,3.0,-1.0
Sr2Bi3,mp-31150,52,-3.7143398265,7.335229188220558,-0.704526739166667,726.3866946277153,0.0,6.698853999999999,15.724758,3.0,-1.0
BaCd11,mp-31216,141,-1.16600529625,7.695127424486947,-0.16010878041666668,592.9280048854754,0.0,9.521029203942502,9.521029203942502,3.0,-1.0
Ca4P7Ir8,mp-31233,11,-7.029314247105262,9.714549500099602,-0.8912698307894731,654.6277897525539,0.0,3.9824610000000003,13.169984349520238,3.0,-1.0
Ca4As7Ir8,mp-31234,11,-6.501195931578947,10.13813970631437,-0.6410026834210528,728.0520596473241,0.0,4.124242,13.635175089932105,3.0,-1.0
Sn4Ir,mp-31277,142,-5.1801477435,9.269841022007956,-0.20480417550000068,477.96902040465017,0.0,12.4614578896786,12.4614578896786,2.0,1.0
Ca3(Bi2Pd)4,mp-31278,55,-4.380872540333333,9.19345141803439,-0.5237657829999999,801.1512332809617,0.0,4.239457,17.226767000000002,3.0,-1.0
LiSn4Au3,mp-31301,186,-3.753441820625,9.312505148824387,-0.2823349572916665,382.54544647129035,0.0,4.591974746931651,20.948526,3.0,-1.0
Nb21S8,mp-31381,87,-8.997209036896551,7.563051131328825,-0.7244047343103448,484.6892559318513,0.0,12.094649612973,12.094649612973,3.0,-1.0
Ba5In4Bi5,mp-31407,104,-3.506680356428572,6.827753035215075,-0.6458403121428573,1065.6284470735209,0.0,9.155393,10.788583000000001,3.0,-1.0
K3PbAu5,mp-31471,74,-2.9238272577777784,8.714497807974446,-0.3223548565555557,498.982252211075,0.0,11.283524370284358,11.283524370284358,3.0,-1.0
Rb5Hg19,mp-31472,87,-0.6587067787499999,8.498785775261773,-0.21401522468749992,828.1507954566106,0.0,10.276025962151856,10.276025962151856,3.0,-1.0
Ca3(GaPt)2,mp-31479,57,-4.317020121428572,6.735857795741548,-0.8577621121428568,640.8080598340953,0.0,5.808577,13.913767000000002,3.0,-1.0
Ca3Ga3Ir2,mp-31481,62,-4.7187027040625,6.672445800575821,-0.621459330625,710.5965405262639,0.0,5.841205,14.986510999999998,3.0,-1.0
K4GaAu8,mp-31484,12,-2.9288203115384617,8.676258141795483,-0.3395323415000003,689.707520431446,0.0,11.020780298780751,11.079587056177546,3.0,-1.0
Ga5Pd13,mp-31485,12,-5.131536027777779,10.529281079956712,-0.549372636527778,273.1599794839003,0.0,5.543578466343378,12.47683197026056,3.0,-1.0
ScCd7,mp-31502,63,-1.705695416875,7.712587831614331,-0.10660823875000004,358.19133017782957,0.0,6.31296315673876,9.434158,3.0,-1.0
Sb2Te4Pb,mp-31507,166,-3.708710208571429,6.668357078889525,-0.2024454557142857,239.33590970151954,0.3028999999999993,14.385909789248679,14.385909950698874,2.0,1.0
Ag3AuSe2,mp-3172,214,-3.21388838375,8.647011698989376,-0.0866596328645836,521.1794000923031,0.3955000000000002,8.780846343270563,8.780846343270563,3.0,-1.0
BaNi9P5,mp-3202,194,-6.067805709666668,6.801486375062527,-0.6673636925238089,400.6085244722792,0.0,6.521872145292716,10.875394,3.0,-1.0
SnP7Au3,mp-3245,11,-4.80178475,6.998384627114075,-0.09958315863636358,439.63477727015123,0.030499999999999968,6.39088,11.146289,3.0,-1.0
Ni2SbTe2,mp-3250,194,-4.655408723,7.716517185087078,-0.2602334309999996,212.7597604357396,0.0,3.938334612636793,15.839216,2.0,1.0
Bi13O20,mp-32597,197,-5.711354374242424,8.824820753039747,-1.6057860286363632,571.4126388011086,0.3473999999999995,9.054349290141339,9.054349290141339,3.0,-1.0
Te8Ir3,mp-32682,2,-4.93344052909091,9.595619283592113,-0.2369224654545457,829.325251684921,0.0,9.149863,11.331458092102626,3.0,-1.0
Rh3Se8,mp-32861,14,-4.926458529545455,7.0162490694065225,-0.3755298539772728,445.12819054640363,0.0,6.053965,13.489639496840566,3.0,-1.0
Hf23Se25,mp-32873,1,-7.7498468716666675,10.342626496823467,-1.1579066530957032,976.0446569843567,0.0,7.940035000000001,15.849829366679886,3.0,-1.0
AgTe4Au,mp-3291,13,-3.187580776666667,7.649715986896262,-0.07430723277777791,353.9292660522363,0.0,4.578168,10.275682695650008,3.0,-1.0
Zr7Sb4,mp-32967,14,-7.61112542,7.468884042531758,-0.6702245681818187,1001.0149023783267,0.0,8.557062,11.250793,3.0,-1.0
Ba(TlHg)2,mp-3392,136,-1.7706713740000002,9.815611249997145,-0.3207438700000001,641.013495541311,0.0,5.2095080000000005,11.092647999999999,3.0,-1.0
Tl9SbTe6,mp-34292,79,-3.052101226875,8.360618743519266,-0.28687099937500005,541.5836043885729,0.6309999999999993,9.265809210304463,9.265809210304463,3.0,-1.0
Tl9BiTe6,mp-34361,87,-3.05932860125,8.582264420679381,-0.30903380687500004,544.4724942730674,0.6400999999999994,9.266660127216657,9.266660127216657,3.0,-1.0
HgTe,mp-358,152,-1.82743433,8.153569318548108,-0.10394368250000004,200.515490201718,0.4918999999999998,4.715256449166684,10.413739,3.0,-1.0
Ta4MnS8,mp-3581,194,-7.868762371153848,7.10365470419278,-1.3782442230503984,483.99659554074617,0.0,6.687252767724353,12.497301,3.0,-1.0
HfCu2Te3,mp-3650,12,-5.047646925,7.568477556240876,-0.4500627616666666,302.06476672489214,0.04870000000000019,7.3253026061653586,10.419678302231793,3.0,-1.0
Ta9(FeS3)2,mp-3652,189,-9.480669796470588,10.323067411350337,-0.9807907593382365,621.7485182106317,0.03149999999999942,6.592285,10.435759768080569,3.0,-1.0
CoGeTe,mp-3715,61,-5.18331024875,7.934556512466693,-0.22509472208333334,433.91684426153,0.12959999999999994,6.203399,11.188353,3.0,-1.0
Ta4AlC3,mp-3802,194,-10.432424763125,12.601078729528506,-0.5752962068750005,207.3664853146417,0.0,3.1419020448591324,24.256194,3.0,-1.0
Ta4AlC3,mp-3803,194,-10.355414559375,12.659086103304706,-0.4982860031249992,206.4162757083446,0.0,3.1075389948679644,24.681993,3.0,-1.0
Ta9(NiS3)2,mp-3824,189,-9.162055659411765,10.517475675098654,-0.978631469338236,306.027395886721,0.0,3.396525,10.199935399865677,3.0,-1.0
Sn(BiTe2)2,mp-38605,166,-3.7359750171428567,7.114758679476173,-0.25556870357142863,244.3796124683357,0.4550000000000001,14.329265748894812,14.32926592072113,2.0,1.0
KCd13,mp-397,226,-0.98087397,7.0956441451456325,-0.044590696642857024,702.273491968911,0.0,9.977163545457195,9.977163545457195,3.0,-1.0
Ga2Pd5,mp-405,62,-5.1305969610714275,10.489118951010662,-0.5655112389285714,425.2514908934338,0.0,4.1230910000000005,18.675812,3.0,-1.0
BaIrO3,mp-4307,15,-6.6839176060000005,8.826014378938,-1.98503807475,426.18800206320014,0.0,5.7942822778577145,14.624141044316175,3.0,-1.0
Ca3Sn13Rh4,mp-4363,223,-4.8829568825,7.2262924005531275,-0.5030336207499999,953.6733856191523,0.0,9.84313,9.84313,3.0,-1.0
Ta2Pt3Se8,mp-4425,55,-6.010738705384616,8.372695892133736,-0.6341563814423075,626.251140298956,0.6778999999999997,3.617576,15.444092999999999,3.0,-1.0
Hg3AsO4,mp-4445,14,-3.8806614471875,8.0845120440501,-1.0615587753125002,608.5430245422879,0.5785,5.2948379999999995,14.702154734291467,2.0,1.0
TaSnS2,mp-4538,194,-6.879667735,7.082427648675305,-1.1763354303125002,170.5867018093945,0.0,3.3408983988457366,17.647697,3.0,-1.0
Y2B5Pd14,mp-4597,141,-6.114082029523809,9.63592011103498,-0.4546417237698399,593.4104112933635,0.0,10.419050560697649,10.419050560697649,3.0,-1.0
Zr2SnC,mp-4613,194,-8.36644519875,7.123122095952327,-0.7835067450000004,146.01149714444426,0.0,3.3757950525735416,14.794633,3.0,-1.0
SrTl2O4,mp-4655,62,-5.073164143928572,8.782352576581053,-1.7309571313095231,423.82259117528815,0.4243999999999999,3.4750129999999997,11.937509,3.0,-1.0
TlAg3S2,mp-4762,60,-3.3128218950000003,7.123522400354352,-0.345271774375,552.1060226801518,0.9054000000000002,6.949294,8.956249,3.0,-1.0
Tl3SbSe3,mp-4876,198,-3.4632589485714287,7.0577910308759595,-0.3630168610044642,914.5609930460228,1.1112000000000002,9.706684,9.706684,3.0,-1.0
Hf2SnC,mp-4893,194,-9.05869339375,11.553737803720967,-0.7710108299999998,140.18771741511208,0.0,3.3319980750333573,14.580414000000001,3.0,-1.0
TaSe2,mp-500,194,-7.093516928333332,7.856741170243508,-0.8103167332291659,143.2409038208091,0.0,3.4742215579920925,13.70318,2.0,1.0
Nb3As,mp-504425,86,-9.160524478125,8.325057777430253,-0.4197660968749997,564.3052865322921,0.0,5.24186,10.375627,3.0,-1.0
Bi3Ru3O11,mp-504468,201,-6.624438135588236,8.841025769733836,-1.5541091913970586,831.0331264485968,0.0,9.401694,9.401694,3.0,-1.0
Y2ReB6,mp-504560,55,-7.888717974444448,7.257162321643563,-0.616071303703704,392.538994087557,0.0,3.6866209999999997,11.581808,3.0,-1.0
Hf2P,mp-504659,58,-9.4468579825,11.585321142730873,-1.00430346202381,667.2709749505514,0.0,3.5888430000000002,15.098325,3.0,-1.0
Re5(NiAs6)2,mp-504815,58,-6.952869648421053,9.996930569848944,-0.12695753552631572,646.9722400022827,0.0,3.249054,15.742934,3.0,-1.0
NbNiAs2,mp-504835,62,-6.7893537875,7.960088609163259,-0.4894341549999997,251.53380532277245,0.0,3.539818,12.59804,3.0,-1.0
YB7Mo3,mp-504874,62,-8.35238141818182,6.771598936913987,-0.5560957273484852,443.7549318941432,0.0,3.110518,12.919019,3.0,-1.0
Ni2SnP,mp-504909,62,-5.642654468125,7.492960217060393,-0.3968716990178578,236.74547249300738,0.0,3.590225,12.945689999999999,3.0,-1.0
Ba(GaPt)2,mp-504985,14,-4.837086966499999,9.392204353300713,-0.8136915154999997,471.6599187827797,0.0,6.470473999999999,8.686344689962057,3.0,-1.0
YCo5P3,mp-505011,62,-7.307512584166667,7.187904934235919,-0.8355217316534396,440.314908458304,0.0,3.6499129999999997,11.740687,3.0,-1.0
Cu(BiO2)2,mp-505042,130,-5.568021781428572,8.317369003305409,-1.444887900714286,435.63360809996834,0.0,6.042072,8.491174,3.0,-1.0
Na3B5Pt9,mp-505055,63,-5.826740798235294,12.620348587378832,-0.4162063926960776,494.40601059896005,0.0,6.4095732815177335,15.27785,3.0,-1.0
Nb2P,mp-505064,51,-9.358468451296297,7.411831914407468,-0.8198364708201054,874.2352599071505,0.0,3.464521,18.112926,3.0,-1.0
Si2Pd9,mp-505071,62,-5.676438592954546,10.192484584151373,-0.4519327447727277,660.7634216042612,0.0,7.534683999999999,9.555794,3.0,-1.0
Ta4Co2PdSe12,mp-505133,12,-6.4235762431578936,7.136234635229869,-0.6983885772697369,441.0889698862764,0.0,7.216173769417765,19.486877158333296,2.0,1.0
Ag3BiO3,mp-505145,80,-4.38367294875,8.276325591559287,-0.7944302735714283,931.8928544762629,1.5236,11.155254507547689,11.155254507547689,3.0,-1.0
NbTe4Ir,mp-505164,31,-5.65583196375,7.969474415290768,-0.4036754337499993,663.0287429490318,0.0,3.824614,13.61997,2.0,1.0
Mn(Bi3O5)4,mp-505201,197,-5.838900648484849,8.748267368053709,-1.6245195147156115,547.1735789115032,0.0,8.924467996234174,8.924467996234174,3.0,-1.0
Ta3SiTe6,mp-505206,62,-6.372676748250001,7.96475586863241,-0.3868314992500004,1114.5897688388916,0.0,6.409516,15.025444,2.0,1.0
Hf5CoAs3,mp-505333,62,-8.738993980277778,11.655643989098945,-0.8643698402777792,670.2468591619171,0.0,3.680501,17.417939999999998,3.0,-1.0
AuBr,mp-505366,138,-2.59140174625,7.209653513094369,-0.13599770624999996,255.07711036667843,2.0580000000000003,4.37978,13.297405,1.0,1.0
Ta4BTe8,mp-505499,55,-6.510361934230769,8.191303747081738,-0.4136765703205131,711.7095280727601,0.0,3.622548,16.914394,3.0,-1.0
NiAs2,mp-505510,61,-5.2907793475,7.037644463064245,-0.2579881841666663,393.6353112844386,0.0,5.817322,11.512242,3.0,-1.0
CoAsSe,mp-505511,61,-5.463745723750002,7.245109977099209,-0.3759631645312507,390.2077756334727,0.4179000000000004,5.773649,11.530869000000001,3.0,-1.0
Nb4Zn2C,mp-505525,227,-7.646954051071428,8.009164987973815,-0.19674146821428554,426.6468884434095,0.0,8.450087255525354,8.450087255525354,3.0,-1.0
Nb3P,mp-505528,86,-9.566405766875,7.717939963136681,-0.6371055215178583,533.0512182017272,0.0,5.121194,10.202318,3.0,-1.0
B8Ru11,mp-505535,55,-8.322942277894738,9.90470593598164,-0.14118331096491196,401.7795649313804,0.0,2.8756909999999998,11.965863,3.0,-1.0
Mg2GeB2Rh5,mp-505693,127,-6.438736823499999,8.37619445773975,-0.6383457388333327,260.652389965616,0.0,2.937303,9.420121,3.0,-1.0
Zr5Sb3,mp-505759,62,-7.5661003484375,7.4170562417230705,-0.6754119896875004,735.583900055947,0.0,7.614874,10.866969000000001,3.0,-1.0
Nb9Co4Ge,mp-505764,140,-9.032564931071429,8.61008335150421,-0.17770461714285798,441.4677610923432,0.0,9.67643387608152,9.67643387608152,3.0,-1.0
Hf5(In2Rh)2,mp-510052,55,-7.3178978640909085,11.166091751857419,-0.4523255995454553,463.2497119842263,0.0,3.398882,17.648901000000006,3.0,-1.0
Zr2Si4Ru3,mp-510274,15,-8.282054627499999,7.296629248664746,-0.8798517047222213,544.3622406927228,0.0,9.918470892915751,13.385006360793149,3.0,-1.0
Ag13OsO6,mp-510349,226,-4.13912583675,9.307364077898775,-0.4628980714583335,602.4996502758403,0.0,9.480340421500587,9.480340421500587,3.0,-1.0
Si3Ru4,mp-510412,62,-8.174525726785713,8.861900727482514,-0.5497399153571426,366.1670193141448,0.0,4.034167,17.339267,3.0,-1.0
Ta4Te16Pd3,mp-510426,12,-5.262667174782608,7.805559975312634,-0.3381640952173914,656.2225352194433,0.0,11.11121089727974,18.107758645359176,2.0,1.0
Ni10Sn5P3,mp-510445,2,-5.610953131666666,8.017056834627416,-0.3837818172619052,527.5100996876532,0.0,6.440208,10.317787701844908,3.0,-1.0
MnPbO3,mp-510672,15,-6.434213480333332,8.220794441694519,-1.6481135212063671,375.87122834199613,0.5679999999999996,5.594103472937019,13.855917610004216,3.0,-1.0
Cs4Sn2Au7,mp-510696,166,-3.0204191392307687,8.276083561163004,-0.365194217824934,430.9428146153159,0.0,10.868491780723671,10.868492079559012,2.0,1.0
Zn5B3Rh7,mp-510697,51,-5.625684912333334,9.503949156343195,-0.43321501549999936,377.3331387852658,0.0,2.862819,11.841372,3.0,-1.0
Sn3Te3Ir2,mp-5142,148,-5.3013862784375,8.77032898104889,-0.4094513790624994,850.7730152621713,0.3959999999999999,9.475559074650793,9.475559894539057,3.0,-1.0
Mo15N16,mp-530081,9,-9.903164157580646,8.565070860023503,-0.5507705946154844,644.9031366082172,0.0,8.047239936905138,9.960036162895896,3.0,-1.0
Ag7(PbO3)3,mp-531125,2,-4.464517738947368,8.221748392782349,-0.8236323467324562,1228.5149789801414,0.0,8.865848,15.942614786819663,3.0,-1.0
Hg2TeO5,mp-5363,33,-4.1888604115625,8.759227571849339,-1.0664867860937497,461.6379620488005,0.5348999999999999,6.059813,10.13289,3.0,-1.0
CaTl2O4,mp-5402,63,-5.126421752142859,8.430357550375899,-1.739054935714286,202.03046027700668,0.043900000000000716,5.85791657191326,10.652509,3.0,-1.0
Hg3(ClO)2,mp-540645,14,-2.5052362208928574,7.787038281964183,-0.8037970800385715,1202.1412940616885,0.6193,9.622635,11.83186437465478,3.0,-1.0
Nb4As3,mp-540660,63,-8.356822615,7.959347026667823,-0.5878832757142851,497.6938042701104,0.0,7.606409777358173,18.99305,3.0,-1.0
Zr2Nb3Ge4,mp-540755,62,-7.854512966111113,7.6822421283635745,-0.5332432105555556,649.9520647935561,0.0,6.874917,13.535297,3.0,-1.0
V4As3,mp-540782,63,-7.663838564285713,6.796112500384513,-0.4762700650000014,418.8230460287941,0.0,7.054591687691783,18.020252,3.0,-1.0
Si4Rh3,mp-540791,62,-6.963965694285713,6.889453954509225,-0.7076543100000003,405.94456001342286,0.0,3.651736,18.95551,3.0,-1.0
Ba3NiIr2O9,mp-540907,194,-6.383616228999999,7.866725017656946,-2.032889613750001,421.7891331738445,0.0,5.824320410266764,14.357317436868419,3.0,-1.0
BaNi9As5,mp-540991,194,-5.611187161999999,7.711836965666213,-0.4621342970000001,447.94832349645776,0.0,6.760342077707679,11.317746000000001,3.0,-1.0
Mg2B4Ru5,mp-541066,55,-7.290618225,7.881272353270162,-0.35515681969696994,251.65494307992282,0.0,2.963244,10.065793,3.0,-1.0
Ta2NiSe5,mp-541070,63,-6.60408401875,7.167216954242418,-0.7321778527148437,377.82742264016633,0.002899999999999903,7.036689119329061,15.786864000000001,2.0,1.0
Y6Ni20P13,mp-541124,174,-6.676219335897436,6.735931178080449,-0.9127763492673998,520.1469919119858,0.0,3.7547129999999997,12.647635936071215,3.0,-1.0
Hg9(AsO4)4,mp-541164,161,-4.2168574491379305,8.294505186675014,-1.1375386765517244,945.327232641956,1.7852,10.574285287791415,10.574285996834444,3.0,-1.0
Te3Pt2,mp-541180,166,-4.691245162,10.25151555498079,-0.3769015199999998,250.41049869120042,0.0,17.691180875037173,17.691181215355012,2.0,1.0
Ta2NiSe7,mp-541183,12,-5.994398446,7.053359505032987,-0.5976912176406252,458.2831437718049,0.0,7.5491015467055425,18.649523380690077,2.0,1.0
Hg7Cl2O3,mp-541193,57,-2.062259433125,8.568749858782379,-0.6147210235641666,1180.595923815312,0.9253,6.636811,14.860166,2.0,1.0
SrNi9P5,mp-541294,194,-6.042754371666666,6.478294082142048,-0.6576116596349209,395.1121325629584,0.0,6.508985801786481,10.768695,3.0,-1.0
Ta2Ni3Se8,mp-541509,55,-5.900760209615385,6.991228373418441,-0.5912788925961541,555.6275127404649,0.3354000000000004,3.493921,14.954529,3.0,-1.0