pretty_formula,task_id,spacegroup.number,final_energy_per_atom,density,formation_energy_per_atom,volume,band_gap,min_abc,max_abc,Dimension,Dim
HfBe13,mp-1878,226,-4.358854351785714,3.9792073215446098,-0.17531463071428582,246.75048171598584,0.0,7.040297353175361,7.040297353175361,3.0,-1.0
Ca5Ge3,mp-1884,140,-3.6151205625,3.1239035241829067,-0.6279851918749997,444.71289946838687,0.0,9.23197829861769,9.23197829861769,3.0,-1.0
Ba2N,mp-1892,166,-4.463278773333333,4.403707634896102,-0.5331408241266669,108.84745516340612,0.0,7.962321959524433,7.962322207635785,2.0,1.0
CaAs3,mp-1900,2,-4.5540327875,4.633747206090414,-0.5582940137499999,189.81692196315706,0.0,5.881285,5.990215934687914,3.0,-1.0
NaO2,mp-1901,58,-4.54620769,2.190153276822324,-0.9066733052777772,83.38290152766164,0.0,3.4740269999999995,5.6746620000000005,3.0,-1.0
BaAl4,mp-1903,139,-3.621437192,3.425431948130945,-0.241182362,118.89082902677285,0.0,6.53415487773859,6.53415487773859,3.0,-1.0
LiZn,mp-1934,227,-1.8030076875,4.082778097815391,-0.2186744491666668,58.85208482567026,0.0,4.3660859747652685,4.3660859747652685,3.0,-1.0
BaMg2,mp-1935,194,-1.7785000975,3.0309751611862388,-0.07198978750000003,407.4670837032737,0.0,6.666042247082222,10.588289,3.0,-1.0
CoP3,mp-1944,204,-6.33441432,4.3827467504460005,-0.4973704751785713,230.1390543390233,0.0,6.686580410568843,6.686580410568843,3.0,-1.0
TiAl,mp-1953,123,-6.227478455,3.8339016130398575,-0.4069445316666673,32.41839122852993,0.0,2.824105,4.064712,3.0,-1.0
Al5Co2,mp-196,194,-5.167263959285714,4.338445784132516,-0.4609047107142855,386.99687466941054,0.0,7.593683,7.671180210441481,3.0,-1.0
Sc3In,mp-19713,194,-5.73270744125,4.443026390929162,-0.2954346799999996,186.63536180979855,0.0,5.226483999999999,6.421356999918709,3.0,-1.0
MnCu2SnS4,mp-19722,121,-5.1440007175,4.3369616162847615,-0.7362943258943968,164.25585405708696,0.0,6.671579199991858,6.671579199991858,3.0,-1.0
Sc3InB,mp-19726,221,-6.083277588,4.1958060889218185,-0.3975810248333332,103.09461345029436,0.0,4.688983,4.688983,3.0,-1.0
K2CuPb(NO2)6,mp-19863,202,-6.03823129090909,3.2419280454382613,-1.0975280916036354,320.1170368145786,0.0,7.678468294264031,7.678468294264031,3.0,-1.0
Y5Mg24,mp-1988,217,-2.4921438048275864,2.379973320671373,-0.05286529563218386,717.1441038334995,0.0,9.766585902721738,9.766585902721738,3.0,-1.0
Al8Cr5,mp-19954,160,-6.057906909615384,4.232632902033681,-0.04022660269230672,373.35577474850936,0.0,7.878913266626621,7.878913335287867,3.0,-1.0
Be,mp-20,229,-3.64374282,1.9150108787465359,0.09567004499999987,7.814618941540773,0.0,2.165259231202352,2.165259231202352,3.0,-1.0
FeAg2SnS4,mp-20002,121,-4.5834743475,4.619325074754139,-0.5788935713541674,186.40707112087227,0.0,7.1380442800464605,7.1380442800464605,3.0,-1.0
Mn(GaS2)2,mp-20025,82,-5.201457548571428,3.4596786945084554,-1.042906556736453,154.85919029959763,1.1954000000000002,6.481277196847008,6.481277196847008,3.0,-1.0
LiFeP,mp-20049,129,-5.916777951666668,3.8747954523488577,-0.6527074156349215,80.36127304822737,0.0,3.699339,5.872169,3.0,-1.0
InP3,mp-20050,166,-4.79802618375,4.1566566923389034,-0.050140855178571364,165.9791633532698,0.0,5.507613003798469,5.507613968598925,3.0,-1.0
LiCa2Si3,mp-20150,58,-4.1561093966666665,2.202979398071484,-0.4567652822222221,516.6442885443818,0.0,4.367545,11.233796,3.0,-1.0
NaMnP,mp-20227,129,-5.732440623333333,3.657644236081479,-0.4358924405199781,98.88076048697019,0.0,3.761191,6.989739999999999,3.0,-1.0
CaMnGe,mp-20235,129,-5.614318575,4.564507843960311,-0.3508738398850575,121.98441627941178,0.0,4.0209160000000015,7.544915,3.0,-1.0
RbMnAs,mp-20242,129,-5.13643539,4.231300114502648,-0.20264907405172514,169.006983602103,0.0,4.485616,8.399636,2.0,1.0
K3InP2,mp-20256,72,-3.188195195,2.5196241017592578,-0.3699531460238094,387.59656383031034,0.7981,8.947189188572072,8.947189188572072,3.0,-1.0
Mn(GaSe2)2,mp-20261,82,-4.7321659600000014,4.72673219358566,-0.5605169048614533,179.24581396655387,0.8787,6.814005572240824,6.814005572240824,3.0,-1.0
CaIn,mp-20263,221,-2.84820085,4.4577485688871885,-0.469559045,57.69972336602253,0.0,3.864185,3.864185,3.0,-1.0
InP,mp-20351,216,-4.288286255,4.5816214404051765,-0.20580145928571447,52.840008616696146,0.4664000000000002,4.212041348270218,4.212041348270218,3.0,-1.0
KMnP,mp-20422,129,-5.6537808766666675,2.7540037693834223,-0.42531711707553416,150.75082227634053,0.0,3.7930050000000004,10.478349,2.0,1.0
MnCu2GeS4,mp-20474,31,-5.21551941875,4.1267481340599765,-0.7311310271443965,308.1701518196673,0.26509999999999945,6.239575,7.593164,3.0,-1.0
Cu3AsS4,mp-20545,215,-4.379128185,4.37120835172093,-0.5230409496875001,149.60458948046397,0.0,5.3086199999999995,5.3086199999999995,3.0,-1.0
Ca3In,mp-20581,225,-2.40529484,2.9681797446011244,-0.2131739974999997,131.49912143710657,0.0,5.7079384717924215,5.7079384717924215,3.0,-1.0
NaMnAs,mp-20612,129,-5.325392533333333,4.244530561695633,-0.2802335026628349,119.59505063263028,0.0,4.132778,7.0021119999999994,3.0,-1.0
NaIn,mp-20628,227,-2.162940985,4.413463524135089,-0.12977301166666688,103.69868622185312,0.0,5.2734651953737215,5.2734651953737215,3.0,-1.0
Ca2In,mp-20669,62,-2.616558809166667,3.31074271320569,-0.3622643125000001,391.16533299898697,0.0,5.384304,10.006897,3.0,-1.0
Li3Sb,mp-2074,225,-3.10110073,3.3521002851555632,-0.63715827,70.63172983860775,0.8066999999999998,4.639860749877952,4.639860749877952,3.0,-1.0
Rb2P3,mp-2079,69,-4.072769449,2.6439837743751915,-0.4325843031428569,331.4276520459828,1.0654,6.682557884144215,8.908827719070842,3.0,-1.0
SrBe13,mp-2080,226,-3.643735538928572,2.4240442180761947,-0.050746360476191035,280.5579817412593,0.0,7.348170231490423,7.348170231490423,3.0,-1.0
NaMnSb,mp-20970,129,-5.003013008333333,4.514976293948791,-0.1345596993295016,146.88423378006166,0.0,4.427575,7.492786,3.0,-1.0
Ca,mp-21,229,-1.98204545,1.5780733797530162,0.02355443000000013,42.17236382354457,0.0,3.797956140347463,3.797956140347463,3.0,-1.0
SiP2,mp-21065,205,-5.526960134166668,3.1585089206628645,-0.10966488654761974,189.33409072627808,0.0,5.742173,5.742173,3.0,-1.0
CaMnSi,mp-21096,129,-5.89365659,3.3624058205433967,-0.3627831332183919,121.5884908254665,0.0,3.921729,7.905645,2.0,1.0
Mn2SnS4,mp-21139,65,-5.993791967142857,4.206135708145626,-0.8187999295443353,140.87916185417185,0.0,3.6795970000000002,6.3741372285843525,3.0,-1.0
CaIn,mp-21187,139,-2.8379679625,4.462995177289751,-0.4593261575000001,230.5275708733976,0.0,6.7099825986243795,6.7099825986243795,3.0,-1.0
ScAl3,mp-2121,221,-4.8472302775,3.0172734312602296,-0.4549311287499993,69.28863083851826,0.0,4.107277,4.107277,3.0,-1.0
Li3In2,mp-21293,166,-2.5436610440000003,4.3253511759481285,-0.297633832,96.15333811373213,0.0,5.626375547883914,5.626375591725814,3.0,-1.0
KO2,mp-21325,15,-4.498041651666667,1.9204541547986416,-0.9265916901666664,122.94957604374088,0.15460000000000002,5.22542607276555,7.626299482728762,3.0,-1.0
RbMnP,mp-21413,129,-5.57410489,3.37070170241512,-0.3889294219088673,168.85655140480117,0.0,3.838382,11.460974,2.0,1.0
SrGe,mp-2147,63,-3.7767635775,4.525888585404171,-0.6205090233333332,117.59811837681423,0.0,4.22178,6.231063297781929,3.0,-1.0
Mg17Al12,mp-2151,217,-2.5149679648275858,2.0946923953385417,-0.026979316206896642,584.2178183411263,0.0,9.121485311493519,9.121485311493519,3.0,-1.0
K2NaInAs2,mp-21510,72,-3.09022552,3.3450807680461367,-0.4893304115555554,363.2224291940989,0.8731,9.136899908075716,9.136899908075716,3.0,-1.0
K2NaInP2,mp-21511,72,-3.26973072,2.744063558070442,-0.4174464594126987,336.3988972262906,1.2600000000000002,8.884680865273946,8.884680865273946,3.0,-1.0
AlAs,mp-2172,216,-4.68748928,3.590699212089334,-0.4851421624999999,47.12568016968292,1.6871,4.054377749269054,4.054377749269054,3.0,-1.0
F2,mp-21848,223,-1.1505827525,2.840784487651501,0.0,88.84191209506102,0.0,4.4621,4.4621,0.0,1.0
YB6,mp-2203,221,-7.048540337142858,3.699194842606093,-0.3995658030952377,69.026957252261,0.0,4.1021,4.1021,3.0,-1.0
KFe2S3,mp-22035,63,-5.7534454175,3.1957923126035617,-1.0085496995625007,256.6658770849004,0.0,5.157325,7.159945553872949,3.0,-1.0
B,mp-22046,134,-6.581039046799999,2.318186389316881,0.09835272403333306,387.2011312753563,0.0,4.925572,8.86625,3.0,-1.0
NaFeAs,mp-22152,129,-5.095898106666667,4.793908463406792,-0.28130693944444474,106.5178694490858,0.0,3.923688,6.918844,3.0,-1.0
Cu3SbS4,mp-22171,31,-4.3364397825,4.624483633041584,-0.5466171928125005,316.45903935378584,0.0,6.304239,7.6135800000000025,3.0,-1.0
YTiSi,mp-22179,129,-7.268172676666666,4.422838704325568,-0.6724136266666664,123.79096274186213,0.0,4.037166,7.595139,3.0,-1.0
Be2Fe,mp-2225,194,-5.496927084166668,4.769353022785467,-0.18065088083333336,102.87597849089914,0.0,4.178627133138945,6.803244,3.0,-1.0
SrAl2,mp-22318,74,-3.3203968316666668,3.1229475643545563,-0.2601858605555556,150.56559613330205,0.0,6.092539694163183,6.092539694163183,3.0,-1.0
NaO3,mp-22464,44,-4.64238078,2.1173597815277745,-0.6027511242708332,55.67230343961003,0.6243000000000001,4.316561987289537,4.316561987289537,3.0,-1.0
Li3N,mp-2251,191,-3.88235307,1.2886089547430537,-0.4625428730950003,44.88256682919796,0.9986000000000002,3.6506897563508462,3.888635,3.0,-1.0
ScB2,mp-2252,191,-7.40258911,3.660544064375377,-0.8388382277777767,30.201855763624497,0.0,3.1457474094537528,3.5241569999999998,3.0,-1.0
Mg5In2,mp-22570,72,-1.99848679,3.5401227332595706,-0.06923425999999999,329.4329621331616,0.0,8.630562573938446,8.630562573938446,3.0,-1.0
InSe,mp-22691,160,-3.6302451725,4.9442240844145395,-0.506447568671875,130.16236066724198,0.8635000000000002,9.269798122883367,9.269798130465679,2.0,1.0
Sr6Li23,mp-2272,225,-1.8583943579310345,1.4123512445350452,0.005126795632184092,805.7995776233666,0.0,10.445133884314265,10.445133884314265,3.0,-1.0
Ca2Sn,mp-22735,62,-3.320859705,3.412530897757297,-0.6472691666666665,387.0731394525959,0.05959999999999965,5.0844260000000014,9.616678,3.0,-1.0
NiS2,mp-2282,205,-4.9260092075,4.629925309475207,-0.6839704029166663,176.20418504397514,0.0,5.6062449999999995,5.6062449999999995,3.0,-1.0
RuCl3,mp-22850,193,-4.24812507375,3.2372341412476064,-0.9891394274449999,212.80138724412757,0.0,5.708643,6.560779871273232,1.0,1.0
ClO3,mp-22869,9,-3.9970638875,2.121033132541825,-0.4993520417524993,261.3329808546352,1.2097,5.3846069018505895,10.286096954559053,0.0,1.0
FeBr2,mp-22880,164,-4.355294073333334,4.536917402245608,-0.4406754200000004,78.93029552449933,0.5075000000000001,3.7280016212358333,6.5578410000000025,2.0,1.0
RuBr3,mp-22892,193,-3.86871435875,4.413499916954566,-0.3224220400000002,256.4322351158238,0.0,5.939204,7.060848224940967,1.0,1.0
Si2Ni,mp-2291,225,-5.8962871800000025,4.7246461428572095,-0.3526989399999998,40.37060507693847,0.0,3.850585332290404,3.850585332290404,3.0,-1.0
CuCl,mp-22914,216,-3.35207109,4.165254206627593,-0.6755422666299999,39.46738875931258,0.8018000000000005,3.821651937017813,3.821651937017813,3.0,-1.0
MnSe,mp-2293,216,-6.68190374,4.228940491146177,-0.3530947659994617,52.57651062467488,0.05379999999999985,4.20502826321441,4.20502826321441,3.0,-1.0
NiP3,mp-2301,204,-5.807673630625,4.205088877880621,-0.3026750645535712,239.4832703751852,0.0,6.775879754054673,6.775879754054673,3.0,-1.0
NaB15,mp-2315,74,-6.3946468009375,2.425916554867817,-0.05055125223958257,253.47675470519403,0.0,7.265290833217484,7.265290833217484,3.0,-1.0
I,mp-23153,64,-1.524012615,4.074684630977837,0.0,206.86737673791168,1.0496,5.117270776207959,9.832479,2.0,1.0
Br,mp-23154,64,-1.63692654,3.3726136434377976,0.0,157.36604023502463,1.3266,4.732219315078392,8.743796000000001,0.0,1.0
BI3,mp-23189,176,-2.875940575,3.1014613139434752,-0.06308317104166639,419.24854932713475,0.0013999999999999568,7.402429627837673,8.834711,0.0,1.0
FeCl3,mp-23204,148,-4.13467323875,2.7573776826129017,-1.0767842861949999,195.3639361464281,0.027899999999999814,7.268463025587321,7.268463317665572,2.0,1.0
ClO2,mp-23207,61,-3.809680176666667,2.0401714820889305,-0.5612862052533334,439.20366496959997,0.9656,5.674172,10.93848,0.0,1.0
CuBr2,mp-23219,12,-2.765508543333333,4.4577848621327,-0.3078219600000001,83.2000767538018,0.0,4.223778686854935,7.060665716812968,1.0,1.0
YAl2,mp-2322,227,-5.183873126666667,3.879200230807744,-0.531332202222222,122.31358058536324,0.0,5.571813345346198,5.571813345346198,3.0,-1.0
CuBr,mp-23227,194,-3.07768415,4.865375073254104,-0.209617545,97.9181771260451,0.43210000000000015,4.132840993828095,6.619653,2.0,1.0
FeCl2,mp-23229,166,-4.772104686666666,2.9329225116852373,-1.1128697421733336,71.76288715165512,0.6777000000000002,6.9743133793224406,6.974313847741009,2.0,1.0
FeBr3,mp-23232,148,-3.70833240625,4.425671475225835,-0.36313678125000015,221.78959629264043,0.02959999999999985,7.383305544830782,7.383305733398421,2.0,1.0
CoCl2,mp-23240,166,-4.172617163333333,3.294832313104482,-0.9672772471733336,65.43673097288773,0.08620000000000005,6.413034897694304,6.413035234743763,2.0,1.0
Rb3Bi,mp-23304,225,-1.999268195,4.0394735250531015,-0.29135906312500004,191.3090842333476,0.2915000000000001,6.467704909187492,6.467704909187492,3.0,-1.0
Li3N,mp-2341,194,-3.8709418675,1.6557344008236294,-0.4511316705950002,69.86153998997425,1.4226,3.5645259407204484,6.34898,3.0,-1.0
Mg2Sn,mp-2343,225,-2.5905134466666664,3.5086877604988684,-0.18713612833333326,79.1866975886188,0.0,4.8200966115481565,4.8200966115481565,3.0,-1.0
Cu2Cl2O,mp-23516,70,-3.891309816,3.768956974665404,-0.9009536635540002,188.56731198549897,0.0,6.192519644762784,6.851164207135747,3.0,-1.0
SbI3Cl8,mp-23536,2,-2.375216355,2.77523712915031,-0.8142291134233336,470.3545674519471,1.2358,7.577203,8.125213823107918,1.0,1.0
CaGe,mp-2360,63,-3.975707745,3.728418518062552,-0.6613938774999997,100.40323617225344,0.0,4.020018,5.9069887516656925,3.0,-1.0
YH3,mp-23706,165,-4.756790394166667,3.973309495935453,-0.7103701197983329,230.5173688142907,0.0134000000000003,6.343591287050026,6.614585000000001,3.0,-1.0
SrH2,mp-23759,194,-3.31444256,3.5372285987228667,-0.5914577013022217,84.15847398882299,1.5349,4.11217833525274,5.746764,3.0,-1.0
Na2H2Pd,mp-23954,139,-3.180986332,3.4807870359964137,-0.32325441878133354,73.66518903701609,0.0,6.255294700253217,6.255294700253217,3.0,-1.0
NaS,mp-2400,194,-3.55636989125,2.0147552748602666,-1.1625488494791667,181.5021334507835,1.2566,4.51430987827309,10.284149000000001,3.0,-1.0
NaSi,mp-2402,15,-3.38401417125,1.7520509902787824,-0.014031052916666727,387.2603272262512,1.4226,6.899823457082507,11.064557839521878,3.0,-1.0
CaAl2,mp-2404,227,-3.493451406666667,2.425284826496,-0.3278675600000002,128.77570572307712,0.0,5.668258467659358,5.668258467659358,3.0,-1.0
Mg5Pd2,mp-2406,194,-3.0950919210714285,4.104433042220919,-0.4720685110714286,541.0989915462474,0.0,8.055814,8.806804008529994,3.0,-1.0
LiP5,mp-2412,33,-5.021718697083333,2.31770491204561,-0.19249333478174613,463.7199661918579,1.2083000000000004,6.5971350000000015,10.512149,3.0,-1.0
TiH2,mp-24161,225,-5.3772534233333324,3.8257371322523417,-0.5855983101911116,21.651375442450625,0.0,3.1284808162748896,3.1284808162748896,3.0,-1.0
SrB6,mp-242,221,-6.416928984285714,3.417060889016553,-0.4503815730952375,74.1013895665296,0.03500000000000013,4.200253,4.200253,3.0,-1.0
ScH2,mp-24237,225,-5.037380553333334,2.8566861422269403,-0.7667330774133331,27.303838,0.0,3.379970414071697,3.379970414071697,3.0,-1.0
CaMg2,mp-2432,194,-1.8414683758333328,1.7319273075223225,-0.106081715833333,340.1294918071443,0.0,6.264629371863032,10.007437,3.0,-1.0
CaSn,mp-2450,63,-3.65172365,4.2934528683715465,-0.6441377825000001,122.82593306179182,0.0,4.38831,6.282218715306321,3.0,-1.0
YAl3,mp-2451,166,-4.859743498333333,3.59996801441374,-0.4339438474999995,235.03819990498314,0.0,7.918095518420827,7.9180956917698975,3.0,-1.0
YH2,mp-24650,225,-5.114225173333334,4.2625905371206585,-0.7989103613022218,35.41956079362063,0.0,3.686260787410464,3.686260787410464,3.0,-1.0
TiH2,mp-24726,139,-5.377089693333333,3.8327320592403327,-0.5854345801911109,21.611860603409266,0.0,3.096405943015063,3.096405943015063,3.0,-1.0
VH2,mp-24728,225,-5.493035356666668,4.697635520449193,-0.3052422257466668,18.719587326854327,0.0,2.9803716441011177,2.9803716441011177,3.0,-1.0
CaH2,mp-24809,194,-3.429131145,2.077239237944304,-0.6007734107466666,67.29945297388664,0.8556000000000004,3.81515015653565,5.338972,3.0,-1.0
Mg2Cu,mp-2481,70,-2.5520047066666667,3.4296239577229657,-0.11874911666666675,217.21264121007573,0.0,5.228444697938575,10.21423966823067,3.0,-1.0
CaC2,mp-2482,139,-6.798708826666666,2.201045445108423,0.02101160000000135,48.358637065931575,1.5112,4.2192346873862085,4.2192346873862085,3.0,-1.0
GaP,mp-2490,216,-4.63053794,4.006314014532293,-0.40984725803571465,41.73684503376176,1.6843000000000004,3.893542069247488,3.893542069247488,3.0,-1.0
BaSi,mp-2499,63,-4.093610845,4.307806244481204,-0.4214684199999996,127.52380342354598,0.0,4.157617,6.567494814695783,3.0,-1.0
Ca2Si,mp-2517,62,-3.6036195808333336,2.1651876563906898,-0.4581149875000001,332.05295411115435,0.2915000000000001,4.8198870000000005,9.04721,3.0,-1.0
Zr2Be17,mp-2544,166,-4.4827993221052616,3.1158055775026297,-0.23725090289473666,178.88420269695874,0.0,5.674583712051923,5.674583900747082,3.0,-1.0
Al3V,mp-2554,139,-5.3682926675,3.714657278013145,-0.2881342775000002,58.956191981503295,0.0,4.9359034750125526,4.9359034750125526,3.0,-1.0
MnS,mp-2562,186,-7.1184493775,3.3914221691871087,-0.8011012088900875,85.19844945773077,0.0,3.952472727680736,6.29743,3.0,-1.0
SrMg,mp-2564,221,-1.70271477,2.5161517672383327,-0.0578341183333333,73.86511316572765,0.0,4.195784,4.195784,3.0,-1.0
YSi2,mp-2568,191,-6.298491636666667,4.180343261820478,-0.5261252522222222,57.62822859177293,0.0,3.971799,4.093159530827012,3.0,-1.0
SrMg2,mp-2572,194,-1.7101292641666666,2.4034101884105046,-0.0801154797222221,376.49043535514915,0.0,6.476366450154978,10.36479,3.0,-1.0
TiSi2,mp-2582,70,-6.80258921,4.061412621527408,-0.5538825244444444,85.07343602333114,0.0,4.779053907211551,5.950468520654992,3.0,-1.0
Na3B20,mp-262,65,-6.041038367826087,2.1460028071792823,-0.06139523449275345,220.67444900847724,0.0,4.1489080000000005,9.7714681402758,3.0,-1.0
AlSb,mp-2624,216,-4.096785315,4.078412269278148,-0.15949678,60.56061019922535,1.2605000000000004,4.407933968289454,4.407933968289454,3.0,-1.0
SrC2,mp-2630,139,-6.68657729,3.1901547400368053,0.02777026111111169,58.11157177528587,1.7674,4.487567282806242,4.487567282806242,3.0,-1.0
Mg3Sb2,mp-2646,164,-2.9742248819999997,3.936735684157168,-0.3624563559999999,133.4742085058391,0.15529999999999955,4.600742977822604,7.2813300000000005,3.0,-1.0
SrSi,mp-2661,63,-4.022865675,3.4519416325056618,-0.4654680383333334,111.31909135498462,0.0,4.077626,6.14650290547015,3.0,-1.0
Ca2N,mp-2686,166,-4.871482313333334,2.161682877827904,-0.8835916641266669,72.33292337664713,0.0,6.742414525731936,6.742414843324907,2.0,1.0
CaSi2,mp-2699,166,-4.657817046666667,2.4258733436285653,-0.3724077399999999,131.76716339371657,0.0,10.377332997193305,10.377333857315087,3.0,-1.0
CaSi2,mp-2700,166,-4.664778873333334,2.362147975614476,-0.3793695666666667,67.66097055355195,0.0,5.734970458105604,5.7349707342082406,3.0,-1.0
BeP2,mp-27148,15,-5.176163585,2.4752814167750854,-0.32083538904761905,380.8257539329544,0.8590999999999998,7.111045508312051,7.937895195026072,3.0,-1.0
P4Ru,mp-27173,2,-6.632698600666669,4.732493595901311,-0.4471919805238088,236.8074525111313,1.1246999999999998,4.745805000000002,7.579532477852576,3.0,-1.0
CrI2,mp-27215,12,-4.538336703333333,4.469788261026912,-0.304645803333333,113.60744313344965,0.27790000000000026,4.402546717025613,8.096375499187339,2.0,1.0
NaAlSi,mp-27335,129,-3.5932511016666666,2.06971694308038,-0.09807041277777746,125.25034336909992,0.0,4.139325,7.310042,3.0,-1.0
NaLi5Sn4,mp-27368,160,-2.946667428,3.9191723923513297,-0.2569120309999999,225.63304192437417,0.0,10.944437623999004,10.944437669391153,3.0,-1.0
NiCl2,mp-27396,166,-3.7863210966666654,3.2213103020889697,-1.0237082188400002,66.80662417661625,0.0,6.729793185244849,6.7297937333821025,2.0,1.0
BaLi2Si,mp-27454,59,-3.06574283875,2.9913483154219813,-0.2752101929166666,199.0577427186137,0.0,4.6652510000000005,6.694097,3.0,-1.0