pretty_formula,task_id,spacegroup.number,final_energy_per_atom,density,formation_energy_per_atom,volume,band_gap,min_abc,max_abc,Dimension,Dim
Ca5(PPd)6,mp-667294,51,-5.309588642647058,5.1931715149751625,-0.9809412644957982,655.338139515682,0.0,4.125891,19.2256,3.0,-1.0
Cs3(FeS2)2,mp-667308,62,-4.733190630277779,3.8057558923417347,-1.0089492587547897,1114.6594412920604,0.0,7.629604,13.116404999999999,3.0,-1.0
Ba9(TaN6)2,mp-667314,2,-6.86932382,5.8563912902619375,-0.9381951686330432,1001.4282203149374,1.2375999999999996,8.172024,12.902935508561685,3.0,-1.0
TeWCl9,mp-669325,2,-3.6869854159090902,3.1511487212037994,-1.1973412167581818,664.518373004914,0.0,6.578347,11.564035489371562,1.0,1.0
Cu2BiAsO6,mp-669361,62,-5.6205499412499975,6.57191203155891,-1.3983940544999995,512.4093941296779,0.0,5.293583000000093,12.487745112737887,3.0,-1.0
Ba2CaWN4,mp-669377,70,-7.482671915,6.144784136991628,-1.1562273199400002,599.4892273891019,1.88,8.164013489096952,10.879689811541596,3.0,-1.0
Sr2NiN2,mp-669418,62,-5.676068541,4.674817178286864,-0.6632598286186664,372.1838764443467,0.0,3.8539120000000002,12.524657000000001,3.0,-1.0
Cu2Bi8Pb6S19,mp-669445,2,-4.396795721428572,6.711397720622204,-0.7516135011249998,903.4247583165044,0.5230000000000006,4.063169,15.942269798639526,3.0,-1.0
Cs,mp-672241,135,-0.82993230125,1.8815918325523924,0.06547007081896561,938.3318580617064,0.0,8.589615,10.451807,3.0,-1.0
CuHgSCl,mp-672253,51,-2.94169703125,5.861254730528611,-0.6592650615962499,375.8406340715296,0.5849000000000002,4.094647,10.157955000000001,3.0,-1.0
Y5Ga3,mp-672256,130,-5.7012555215625,5.201463074033182,-0.5241752622916671,834.7585796096943,0.0,7.656586,14.239363,3.0,-1.0
Li13Si4,mp-672287,55,-2.9870462555882367,1.283596620173857,-0.2507372351960785,524.126810759183,0.0,4.420735,15.011548000000001,3.0,-1.0
Ba6In5N,mp-672306,167,-3.2486398075,5.2391624531441945,-0.4799134893649999,895.0967474868927,0.0,15.681263545672142,15.681263874144873,3.0,-1.0
Sr4GaCN5,mp-672334,14,-6.224372065227272,4.420190253718758,-0.8811755057787874,754.7196376796754,1.4475000000000002,7.4760100000000005,13.590385597584973,3.0,-1.0
Sb2Se3,mp-672706,62,-3.909600914,4.339933896914323,-0.16045353140624954,735.2397400908047,0.4983,3.808355,15.055698999999999,1.0,1.0
Li7(Mo3Se4)4,mp-673706,1,-6.439219613142858,5.982446534924983,-0.7407978968809524,683.7143699530293,0.0,7.016659,14.048770124138874,3.0,-1.0
Li7VAs4,mp-673833,15,-4.0729714775,3.0633328731236737,-0.6494014977777773,432.8043767198191,0.9022,7.334400643479261,11.988524647015455,3.0,-1.0
Zn(InS2)2,mp-674328,10,-3.950663959285714,4.168547707853136,-0.9999395967857142,337.24670501570165,1.3922,3.9653739999999997,12.786933045744007,2.0,1.0
Y4CuTe8,mp-675009,7,-5.333311991538461,6.202056013807392,-1.0939659482051278,771.0750880305799,0.0,6.102476,15.399838742101588,3.0,-1.0
Ga12Ag2Te19,mp-675033,1,-3.341456057878788,4.99977254197396,-0.25888103646464644,1154.729093967926,0.7557999999999998,10.454941999999999,10.5181489117155,3.0,-1.0
In8Cu7Se16,mp-675060,1,-3.807402502580645,5.78011660893062,-0.3673218518548386,754.6181911822922,0.0,8.606869999999999,10.801597214300251,3.0,-1.0
Nb3IrSe8,mp-675066,9,-6.2979593725,6.187009719985805,-0.7054895923958332,591.8649747774748,0.0,6.966751632080549,15.231962040315262,2.0,1.0
Cu4Sn7S16,mp-675137,160,-4.437314072592591,4.5482570334961885,-0.7324374972222222,583.4902366908951,0.0,12.953371843189132,12.953372093311186,3.0,-1.0
Nb9IrSe20,mp-675290,2,-6.404155864333331,6.074456382340858,-0.7485423532291662,712.8175627476038,0.0,6.9067289999999995,11.53338821442628,2.0,1.0
Nb3IrS8,mp-675367,15,-6.8536371462500005,4.8286021891440445,-1.2764484400000005,500.3391426296697,0.0,6.72541297365515,13.952122008626535,2.0,1.0
Al2PbSe4,mp-675374,66,-4.389151407142856,5.005685285679179,-0.7909450299107144,382.8191732229584,2.0161,6.3588814567051815,11.020245,3.0,-1.0
Nb15IrS32,mp-675380,1,-7.032171073125,4.3909694761855445,-1.3760527031250014,987.7431145080644,0.0,8.995527000000003,13.642059574170098,2.0,1.0
Li3(Mo3S4)2,mp-675383,1,-6.986142392352941,4.816313958462763,-1.1870514679411774,588.1724517384861,0.0,6.667797,13.346791292334313,3.0,-1.0
MgMo3Se4,mp-675435,2,-6.649542581875,6.14405531512636,-0.6344357005468746,678.8743665052912,1.1177,9.307093,9.691893919125352,3.0,-1.0
Mo2RuSe4,mp-675462,2,-6.9961108267857135,6.599493929464249,-0.5747791659821421,612.7255145077347,0.4815000000000005,6.72899,9.819342158780543,3.0,-1.0
Li7MnAs4,mp-675473,9,-3.977042194583333,3.101549252060108,-0.5469888481657085,431.7509103413466,0.0,6.034094914373584,11.959273320870723,3.0,-1.0
K3SnSb3,mp-675476,2,-3.1159823014285712,3.501620786932629,-0.29772909914285706,570.2828075117231,0.2394000000000003,5.268832494960903,15.55793675790776,3.0,-1.0
Cu6BiS6,mp-675590,1,-4.262643771538462,5.1790265132409035,-0.4685504229807702,250.93807093113026,0.0,3.79989,19.090713620282397,3.0,-1.0
K2In12Se19,mp-675614,148,-3.671334355454545,4.7486140167709925,-0.590627666682765,1033.7696253476233,1.5506000000000002,10.117256546301967,10.117256677655755,3.0,-1.0
Ge5(Te4As)2,mp-675637,12,-3.8385137960000004,6.128726895761857,0.00013843900000030848,415.5849328838693,0.0,7.237110567069429,11.848112930260074,3.0,-1.0
Mg(Mo3Se4)2,mp-675743,1,-6.883017809,6.407252810149792,-0.5735891389166672,638.389490316806,0.0,6.831979,13.696043761194725,3.0,-1.0
Cu(Mo3S4)2,mp-675745,1,-7.443222215,5.494787996731792,-0.9794232959999998,541.3693143657857,0.0,6.472565,12.998159001142659,3.0,-1.0
Ca(Ga3Te5)2,mp-675750,5,-3.517715038529412,5.0402153398340745,-0.4819984388235296,1142.8343162143221,1.0697,10.4256661237155,10.470374226942656,3.0,-1.0
Cu3(Mo3S4)4,mp-675781,1,-7.330517735483871,5.635070548039845,-0.9429959858064516,546.6178639012173,0.0,6.520355,9.538134234536072,3.0,-1.0
Cu3(BiI4)4,mp-675786,8,-2.6144870108695653,5.292572656381986,-0.3430974852173915,959.1402767897259,0.0,8.749370519221197,15.293479301059813,3.0,-1.0
Ga2HgTe4,mp-675792,1,-2.971479124285714,5.990553805536164,-0.26675411142857136,942.9393324790576,0.22270000000000006,7.532085,14.439700505252215,3.0,-1.0
Mg(Mo3Se4)2,mp-675833,2,-6.885723964333334,6.425649282635237,-0.5762952942500003,636.5617972422173,0.0,6.837727,13.662403229375643,3.0,-1.0
In3AsSe3,mp-675930,31,-3.7610666721428565,4.898833700400892,-0.4179375252901783,444.8969400148632,0.09980000000000012,4.246303,17.091653,3.0,-1.0
Ga3Te3As,mp-675954,31,-3.6135675135714287,5.2392167628880335,-0.3030949846428572,422.7341393059212,0.00240000000000018,4.153419,16.835515,3.0,-1.0
Na3Cr11Se20,mp-676009,8,-5.847956143823531,4.955843705254168,-0.5524941328492642,743.8908190547082,0.0,12.961437233324551,19.46777888970326,3.0,-1.0
Li27Sb10,mp-676024,12,-3.1184422483783787,3.368726382805604,-0.6094981997297297,692.5670853693373,0.0,7.954522960114829,12.236689750696225,3.0,-1.0
Ga5(PS)3,mp-676038,25,-4.497977536363637,3.6915234228830127,-0.6980407456899352,241.88490914103423,1.3519,3.83125,11.476787,3.0,-1.0
Cu11Sb4S13,mp-676076,8,-4.277397576428571,4.736520703432757,-0.4646780550223215,561.944788517977,0.0,8.911077634340586,9.099426519092123,3.0,-1.0
Ag3SI,mp-676121,1,-2.914271885,5.912215314641317,-0.2153377866250004,271.07710159969986,0.3741999999999999,4.3196900000000005,13.2786736759478,2.0,1.0
Mg(Mo3S4)2,mp-676282,1,-7.407349657333333,5.085384144059376,-1.110145846333334,559.3259236224823,0.0,6.5442050000000025,13.103365806488538,3.0,-1.0
Ga7(CuSe4)3,mp-676349,8,-3.919847007727273,5.074118500621919,-0.4905185413920453,532.1909963309304,0.0,10.606436623477368,15.777269925265145,3.0,-1.0
Cr9In7S24,mp-676500,8,-5.75662897175,4.020913168399071,-1.0193547181249998,842.9868346378572,0.0,7.3045878298856834,12.756212008396929,3.0,-1.0
Ag2CO3,mp-676581,26,-5.6764542974999985,5.4319642402715616,-1.0716394453472218,505.7682519557005,0.5938000000000001,3.446823,15.895071,3.0,-1.0
Ga6SnTe10,mp-676609,5,-3.4767311964705883,5.259513723568294,-0.3231338923529408,1144.8347477943048,0.7984,10.456623812925947,10.470878226695456,3.0,-1.0
Li27As10,mp-676620,12,-3.327276152702703,2.73796183080054,-0.6750571945945949,568.0499503973529,0.0,7.44709603580295,11.451739228836553,3.0,-1.0
LiNi9S10,mp-676685,14,-5.115111579,5.259131489785646,-0.6821089962291673,540.4473377366375,0.0,5.998343,11.636304953087855,3.0,-1.0
ReSeCl,mp-676712,20,-6.491973707222222,6.283482226466428,-0.7605438274234717,953.3400166525496,1.5372,9.395234616985356,11.023337,2.0,1.0
Cr5AgS8,mp-676751,11,-6.631527771071428,3.951055022973299,-0.9971197504761904,524.8160869863249,0.0,6.058173,12.620660770000795,3.0,-1.0
Cr4(Ga2Se5)3,mp-676814,8,-4.874787584,5.0140709433365185,-0.5060101816062496,599.6674793689517,0.0,6.578134207502915,15.918022150800676,3.0,-1.0
Cu7PSe6,mp-676863,1,-3.990713356071428,6.0422361538274645,-0.05619896911670911,1043.8350296635267,0.025300000000000544,10.110052,10.174445666050117,3.0,-1.0
Mg3(Mo3Se4)4,mp-676910,1,-6.766832048387097,6.184813779420479,-0.6093113983064515,667.8749603683638,0.0,6.949777,13.868241276482644,3.0,-1.0
AgSbO3,mp-677054,1,-5.318856966499999,6.448360239734786,-1.3791462365833336,857.9101650285205,0.0,8.102397,13.442677477501796,3.0,-1.0
ScCuSe2,mp-677055,14,-5.463443179375,5.285174174229198,-1.1075684967968744,669.6528492573868,0.6572000000000005,7.781263,12.745057312665956,3.0,-1.0
Li7(Mo3S4)4,mp-677108,1,-6.893941286857142,4.798239288287422,-1.2059980212380959,592.7901507321043,0.0,6.678419,13.395814990797238,3.0,-1.0
YAl6Si18(N15O)2,mp-677127,1,-7.973732444912279,3.2021864012876518,-1.4182749884309942,626.7023440295559,0.0,7.939997999999999,11.439322238635993,3.0,-1.0
Li11TiSb5,mp-677323,8,-3.484347197058824,3.4898386437970776,-0.570308976470588,348.78547398874383,0.10219999999999983,7.9525011084303525,11.347022471394205,3.0,-1.0
K4N2O5,mp-677509,15,-5.1132174677272735,2.079060615901588,-1.3336840580009086,422.3566198999772,0.35640000000000005,5.486571118572417,14.3018562254951,3.0,-1.0
TlAgAs2PbS5,mp-677611,2,-4.152065917,5.429670583627168,-0.5930616972291674,507.43996382583015,1.4741999999999995,8.099882000000001,9.281613145826645,2.0,1.0
In11Cu9Se20,mp-677803,82,-3.834990421,5.391786202930267,-0.4080001556718749,1051.4634928712103,0.0,11.12000088560037,11.12000088560037,3.0,-1.0
Ti8Se3,mp-679962,12,-7.370319983636364,5.6102589591723975,-0.6747135685179935,733.8190194739767,0.0,12.886321021624207,19.741190048207148,3.0,-1.0
Sr(Ni5P3)2,mp-680220,62,-6.0352878691176475,6.375735210238407,-0.6252547384173665,896.3497218519498,0.0,6.451352,15.964223,3.0,-1.0
Ti45Se16,mp-680260,1,-7.395580534426229,5.622256961558075,-0.654076855860656,1009.3250329045027,0.0,3.465362823612056,17.786708703019006,3.0,-1.0
Mn4Si7,mp-680339,116,-7.216967408863637,5.2606009687014375,-0.4329652251018801,525.693983374783,0.8013000000000012,5.503129,17.358557,3.0,-1.0
TlGaSe2,mp-680555,9,-3.6721850203125,6.099077647068322,-0.5767921608593749,940.9902158481112,1.2542999999999995,7.753840238517299,15.897556439182596,3.0,-1.0
Ti2Se,mp-680576,62,-7.252856870277778,5.885539501718228,-0.8238916999479158,591.4554713958149,0.0,3.4647040000000002,17.949303,3.0,-1.0
Mg4Zn7,mp-680671,8,-1.5202089461818182,4.902721695402429,-0.13663390345454535,940.0258305197036,0.0,5.286780519483711,14.14062726829371,3.0,-1.0
K6Fe24S26Cl,mp-680728,139,-6.148300588947368,4.1341387003897285,-0.8589312851317539,981.6745464509607,0.0,12.153264411828575,12.153264411828575,3.0,-1.0
Ca5CuPb3,mp-680754,193,-3.2434633522222223,5.410054480937552,-0.4362247655555554,543.6052919843678,0.0,6.7747160000000015,9.625670217852363,3.0,-1.0
Ti8S3,mp-680850,12,-7.751771522727273,4.732975207820129,-1.0624164560037883,672.402206717294,0.0,12.608527300215911,19.21284847913513,3.0,-1.0
Rb3Nb2AsSe11,mp-683902,9,-4.631033592941177,4.239804284426313,-0.7334831837224263,1085.4299446944678,1.1788999999999998,10.245099456215396,10.383017807281274,3.0,-1.0
K3Ta2AsSe11,mp-683905,9,-4.851574910882354,4.692403557791735,-0.724463336751838,1006.9052406097264,1.2004,10.100236976500897,10.105574142957737,3.0,-1.0
Mg3(MnAl9)2,mp-684027,227,-4.039903376956522,2.962260814924126,-0.10318085388305907,749.4288963214018,0.0,10.195655298203153,10.195655298203153,3.0,-1.0
Mg3(TiAl9)2,mp-684031,227,-3.987202378043479,2.7005341582199587,-0.16058545963768167,804.6692765109561,0.0,10.440247776456266,10.440247776456266,3.0,-1.0
Zr10C9,mp-684623,15,-9.671515258947368,6.396416519367943,-0.8021451221052617,529.7679668263753,0.0,8.84251050256843,11.089664147860386,3.0,-1.0
Cr5S8,mp-684674,2,-6.91869673,3.7301089422418574,-1.068761631153846,689.794269911827,0.0,8.870417,10.347506326892967,3.0,-1.0
Co2S3,mp-684732,141,-5.71340479875,4.717072073132108,-0.7862837606250004,602.8439595321712,0.0,14.687653599622983,14.687653599622983,3.0,-1.0
Sc2Te3,mp-685069,2,-5.646262137000001,5.232477695411916,-1.2272939369999996,600.0648233505365,0.03620000000000001,7.083411,13.900359230573034,3.0,-1.0
Al2Se3,mp-685120,141,-4.40793318625,4.280844654738498,-0.8121559676562498,902.5439246550037,1.12,16.81001256387713,16.81001256387713,3.0,-1.0
Co7(SbO6)2,mp-685142,15,-6.1887294452380965,5.7327372835166,-1.6246240800000005,491.2878637480178,0.6821000000000002,6.158231068801007,13.569158935715395,3.0,-1.0
Li20B54O,mp-685320,1,-5.6438769246666665,1.6799028213368299,-0.2690598789722215,730.0996166184383,0.0,8.196336,12.515798591351373,3.0,-1.0
LiNi3P2,mp-685439,6,-5.6234714877380965,5.6490962558248174,-0.6108207161507944,1008.1120324845008,0.0,7.1997490000000015,15.57716500091676,3.0,-1.0
CsTaSe3,mp-685607,62,-5.626043042,5.666889898748402,-0.9778601549924566,645.5140150866279,0.08720000000000018,6.189068,13.440370999999999,3.0,-1.0
Li26(B24O)3,mp-685675,1,-5.682826902178219,1.7347555783988915,-0.30376553148927304,963.7807627582556,0.0,8.218433000000001,16.473490726777342,3.0,-1.0
Ba6Fe14Cu11S27,mp-686328,1,-5.603868550172414,4.781971026077827,-0.9666984626616368,1100.9742824694697,0.0,10.208524,10.441885870953534,3.0,-1.0
Co7(RuO6)2,mp-690550,1,-6.466227479523809,6.0381445325860215,-1.4120851223809519,443.67901858558287,0.0,5.962256913316216,17.914805251044204,3.0,-1.0
SnSe,mp-691,62,-4.179812505,5.834020472859625,-0.4270708386718751,225.05149498313725,1.3338,4.219403,11.789800999999999,2.0,1.0
Ga2NiS4,mp-6959,164,-4.5689233571428565,3.752303809514573,-0.8934537639285719,144.4443154204289,0.0,3.648916041330631,12.526856,2.0,1.0
Sr(GaTe2)2,mp-6987,66,-3.649237740714285,5.106504754380689,-0.7465411723809521,479.6200776034536,0.5379999999999998,6.826677304264279,11.908299000000001,3.0,-1.0
Li19Ni23O42,mp-698842,2,-4.920655896785714,4.8790173910242745,-1.3759103278075395,733.0312798844908,0.0,8.206097,10.48195498520524,3.0,-1.0
Sb2Te,mp-6997,164,-3.863846442222224,6.281420401986868,-0.06341197222222268,294.3247954881338,0.014300000000000425,4.3658441619815065,17.830346,2.0,1.0
GeSe,mp-700,62,-4.27515310375,5.121945771380412,-0.215683437421875,196.5953828743597,0.8969,3.877954,11.142221000000001,2.0,1.0
NbSe2,mp-7007,42,-6.52769583,3.2108137526211538,-0.8299864982291668,129.72007566114368,0.0,3.4847936744392776,12.702814766963265,2.0,1.0
GaAg(PSe3)2,mp-7008,163,-3.9722387510000003,4.387248952182136,-0.2059695415372019,539.9558631241122,0.6699999999999999,6.457501327107956,14.951976,2.0,1.0
Ni5Te4(BrO6)2,mp-704879,15,-4.848350493913044,5.2308384168275825,-1.158101545,733.7376447103238,0.0,10.571472004446921,16.458248739396605,2.0,1.0
Co29O40,mp-705563,1,-5.961158352463768,5.358234126387961,-1.2999723407971011,727.9768602068345,0.0,8.337371000000001,10.248461996969645,3.0,-1.0
Mn3(AgO2)4,mp-705778,1,-5.7338924790000005,6.3030141480525375,-1.2180180309008126,763.2531053604297,0.5812999999999997,8.888845,9.278234441296952,3.0,-1.0
Mn14Al56Ge3,mp-706448,147,-5.0419791049315075,3.8012394271325363,-0.2216336168516765,1091.2382321788687,0.0,10.308867,11.055770278515606,3.0,-1.0
K2SnBr6,mp-707190,128,-2.971341775,3.5459316845357884,-1.1877941095555558,633.4433278198047,0.05359999999999998,7.479875999999999,11.321891,3.0,-1.0
Ba7Cu3H17,mp-707874,159,-3.485740953888889,4.248210633398345,-0.4929283959829629,913.9250647342932,1.4489999999999998,7.447985000000001,11.903387654366801,3.0,-1.0
KSb(PSe3)2,mp-7123,4,-4.065442054,3.866039764463122,-0.3612979764205356,598.3770647382606,1.8114,7.04295,10.35529926245263,3.0,-1.0
KAs,mp-713,19,-3.337913154375,2.8849032457710058,-0.4531544783749997,525.0352810892267,1.1256,6.561307000000001,11.761600999999999,3.0,-1.0
Sr6CoC2N7,mp-721246,18,-6.54773506625,4.172924907108697,-0.8373555644787496,562.453759785756,0.0,3.869881,14.690992999999999,3.0,-1.0
ZnAs2,mp-7262,14,-3.682320307916666,4.900162044884189,-0.15632683458333338,583.5475382203108,0.22419999999999973,7.801521000000001,9.40739489182021,3.0,-1.0
PPdS,mp-7280,60,-5.337971909583334,4.61801446254666,-0.6492527301488096,487.46992329425314,1.0882999999999998,5.70915,14.879931,2.0,1.0
K2Te3,mp-7289,62,-3.033236908,3.970605295922456,-0.7030967711999999,771.1699419288975,0.6825000000000001,4.6169459999999996,16.042680999999998,3.0,-1.0
HgPSe3,mp-7293,15,-3.3616740005000003,5.297887237658307,-0.1207338686205354,587.3051897192847,1.2149,6.720679801326425,15.190052634938727,2.0,1.0
Tl3SnSe4,mp-733717,14,-3.4547707878125,6.538404627763084,-0.3199986996093749,1064.3248395094292,0.0,8.368926,15.293127469695824,3.0,-1.0
Ba3(AlSn)2,mp-7377,71,-3.5486493214285715,4.584363067360534,-0.5104767700000004,254.77116691504062,0.0,10.999589273065336,10.999589273065336,3.0,-1.0
Ba(ZnAs)2,mp-7427,62,-3.4289543555,5.782364541447322,-0.6776153835000003,480.13972865438524,0.2974000000000001,4.298116,11.013665,3.0,-1.0
RbSb,mp-7444,19,-2.9738899625,3.8187275159288574,-0.4191223062499998,720.8890524923899,0.5423,7.3631199999999986,13.037229,3.0,-1.0
K2Ag4S3,mp-7494,12,-3.364108956666666,4.706442993853829,-0.700776566893518,427.5252060105649,0.12829999999999986,9.17620854375602,11.741117950594184,3.0,-1.0
Tl2Sn2S5,mp-7499,15,-4.104619956666666,5.360970415140209,-0.7593534006250001,499.6274613580557,1.6584000000000003,6.934559018787137,11.632684781810472,3.0,-1.0
IClO,mp-752422,148,-2.9329097844444445,3.5919263145294065,-0.5917334309477779,494.7237629572029,1.0432,9.443640835752806,9.443640893077466,3.0,-1.0
Tl3(SbO3)8,mp-752438,1,-5.614386885714287,5.732877243074339,-1.5568743111428578,570.9664113934714,0.0,7.3767770000000015,12.744967549199645,3.0,-1.0
Ba(NaSi2)2,mp-752573,46,-3.918373208214286,2.642582110781582,-0.16844015916666674,743.1155251662171,1.0116999999999998,11.09020985662016,11.09020985662016,3.0,-1.0
MnCd6O8,mp-752683,225,-4.609754943,6.831819935962588,-1.4775203677076774,833.5962922566356,0.3058000000000001,9.41135,11.526502645371233,3.0,-1.0
Li4Bi2S7,mp-753429,14,-4.072761488461539,3.9011672046991968,-1.0168623227083329,570.5265532867528,0.916,6.1714080000000004,12.558702,3.0,-1.0
Li3BiS3,mp-753477,14,-4.053517220714285,3.7934761723476,-1.1912640049107144,570.8042484042687,1.0128,5.876395,16.141344,3.0,-1.0
LiCuS,mp-753826,62,-4.096847068333333,4.025209232757741,-0.9364739338194448,169.2250936643046,1.0759999999999996,3.7114540000000003,12.249916,3.0,-1.0
Cu2OF2,mp-753831,15,-4.447574421333333,5.442459850743681,-1.3905386060593334,331.5089677914312,0.0,5.224042770597595,13.959347228362939,3.0,-1.0
Sb11S18,mp-753921,1,-4.284027746206896,4.200558050884681,-0.562205979181035,757.6309858735641,0.0,6.8617539999999995,15.425892764455517,3.0,-1.0
CsRbO,mp-754171,62,-3.142048718333333,4.337845361616444,-1.1015147472270117,358.8739682297644,1.2526,5.040083999999999,9.952913,3.0,-1.0
Li5SbS,mp-754496,19,-3.422280961071429,2.5179637092983644,-0.972765898184524,497.3247693285195,0.5486999999999997,4.509056,18.945431,3.0,-1.0
INO3,mp-754661,19,-5.1157650055,3.218138415931831,-0.6730687637259998,389.9041599687847,1.6497000000000002,4.342469,12.096245,1.0,1.0
Cu2O3,mp-755040,14,-4.9832387395,4.314136874571602,-0.7961567902499993,269.5733823305534,0.0,3.599526,10.419927239492267,3.0,-1.0
LiNiO2,mp-755200,74,-4.855403878125,4.727127201363034,-1.3513062570833334,137.18585169480852,0.0,10.047988166319168,14.270113451344702,3.0,-1.0