pretty_formula,task_id,spacegroup.number,final_energy_per_atom,density,formation_energy_per_atom,volume,band_gap,min_abc,max_abc,Dimension,Dim
Mo15Se19,mp-568488,167,-7.237180517794116,6.072819426029648,-0.4987404141038605,1607.4539872202731,0.0,20.578486671901466,20.57848707729956,3.0,-1.0
In3SnI5,mp-568493,14,-2.6855775494444445,5.049103800793128,-0.4761679805555556,1444.0194846160525,2.0208000000000004,9.05888,17.77693976842589,3.0,-1.0
CsRb(MnCl3)2,mp-568508,194,-4.601591770124999,3.1848663904601304,-1.8293462455551377,2256.414668245919,1.4307,12.110847999999999,14.667525890301645,3.0,-1.0
In3SnI5,mp-568522,14,-2.68677638,5.041193925460919,-0.4773668111111111,1446.285220524942,2.0166000000000004,9.042695,19.058512248395072,3.0,-1.0
Sr2SnSe5,mp-568525,18,-4.280969173125,5.087251574300649,-1.172457704381511,1798.529151415871,0.9080999999999996,8.744024000000001,16.784499,3.0,-1.0
Cd4P2I3,mp-568545,61,-2.454862099583333,5.408854459836882,-0.3337322542658734,2191.528299722998,1.379,12.823556,13.219548000000001,3.0,-1.0
RbTaN2,mp-568557,61,-8.2849375315625,6.080860648031626,-1.0991235121275,1286.4257689348158,2.4442000000000004,6.105153,17.221128,3.0,-1.0
Na10(Ga2Sn)3,mp-568580,136,-2.4827405407894743,3.4414074399731462,-0.2014873435964916,1938.495803403259,0.0,9.042638,14.641476,3.0,-1.0
KCuPSe3,mp-568611,14,-4.006857046111112,3.8040635749527,-0.4884193942115576,1940.7451865992707,1.0053,8.867842,20.22779099668891,3.0,-1.0
SnHg6(P2Cl3)2,mp-568612,198,-2.722398818382353,6.16760057271846,-0.6631103859615128,1786.501486187532,2.1321,12.13392,12.13392,3.0,-1.0
Sc44Os7,mp-568623,216,-7.201946572647059,4.907494789322519,-0.19763320460784334,2239.7727480263807,0.0,14.686094485721453,14.686094485721453,3.0,-1.0
HgI2,mp-568742,137,-1.4291586258333335,5.4429752891937575,-0.3119234275000002,1109.0216678950192,1.3792,9.149441,13.248018,2.0,1.0
Hg6MoAs4Cl7,mp-568757,205,-2.9094983994444443,6.346220282332728,-0.6827675284900003,1933.482158147652,0.11109999999999998,12.457953999999999,12.457953999999999,3.0,-1.0
Na4Ge2Se5,mp-568762,14,-3.698632256931818,3.6065403907332128,-0.7909757146638257,2328.049522189769,1.9326,12.208722,14.349350352594502,3.0,-1.0
NaAl3NiCl12,mp-568785,14,-3.7735177173529415,1.905057757965827,-1.810121946320784,2050.337601985761,1.2570000000000001,12.212895,13.8212767070262,3.0,-1.0
Bi20(PtBr12)3,mp-568819,12,-3.2785941616949152,5.44694570666429,-0.6524456062711863,2329.5348529266244,1.2075,11.588882400083154,18.741911723650922,0.0,1.0
Hg6BiSb4Br7,mp-568828,205,-2.2526279506944444,6.8027875793931845,-0.3811497706944446,2400.827720082232,1.0313,13.390198000000002,13.390198000000002,3.0,-1.0
Ba3GeI2,mp-568836,70,-3.4563241575,4.4919289210374895,-1.218329895,1091.906648455055,0.007299999999999862,8.777393064469258,16.58254802344682,3.0,-1.0
TaBr5,mp-568846,62,-4.2832149570833336,4.162935338037316,-0.9428132354166668,1852.3268095745573,2.0283,6.7198910000000005,19.581963000000002,0.0,1.0
K4GeSe4,mp-568847,218,-3.5625657325,2.957080590723257,-1.0016468932083331,2447.774302213545,2.0003,13.476914,13.476914,3.0,-1.0
K2Hg(PSe3)2,mp-568855,14,-3.6461567984090912,3.9909443804734654,-0.525564175882305,1355.568189860557,1.3910999999999998,7.446045,14.593005170066444,3.0,-1.0
NaW6NCl18,mp-569050,176,-5.528866461923077,4.397509617406892,-1.31405104632282,1342.9213345695405,0.6025,9.202401213790344,18.311232999999998,3.0,-1.0
RbNa11(WN3)4,mp-569098,61,-6.428777782857144,4.538322092548445,-0.6179249047402381,1817.456026758409,2.1756,11.765668,12.592647,3.0,-1.0
K3Cu11Te16,mp-569136,74,-3.5162177636666665,5.77691849606369,-0.2257082606333332,1642.9714548179693,0.07929999999999993,15.870742940912814,15.870742940912814,3.0,-1.0
Ba6NaCu3Te14,mp-569168,193,-3.8741289008333335,5.774009837235861,-0.993615974722222,1624.2941968429507,0.6468999999999996,9.135616,14.328413549718233,3.0,-1.0
Cs4P2Se9,mp-569193,15,-3.746450344333333,3.7807365198157328,-0.6883580436640495,1145.644788942672,1.5130999999999997,7.558447539555527,20.122575625809187,3.0,-1.0
Mg44Ir7,mp-569273,216,-2.726194670196078,3.9515139211426766,-0.1324430007843138,2029.6527523285654,0.0,14.211685232514894,14.211685232514894,3.0,-1.0
Bi2(PSe3)3,mp-569308,2,-4.144222433928571,5.130158692843206,-0.18114175512914496,1581.5379335905616,1.4093,6.971349000000001,18.254602018721965,3.0,-1.0
Cs3CoI5,mp-569323,62,-3.0166925105555555,4.0086375103595815,-1.0817382898659005,1809.6863124872007,0.9287,10.193804,15.062551999999998,3.0,-1.0
TlGaBr4,mp-569348,14,-2.901788643125,4.30334683422461,-0.912212869375,1832.8043020297198,3.5506,11.616549000000001,13.10693111417974,0.0,1.0
Rb2HgPSe5,mp-569349,86,-3.3908280430555555,4.399613105885108,-0.5955400697544639,2407.3875707030475,1.379,7.376902999999999,18.064917,3.0,-1.0
Rb3Ta2AgSe12,mp-569378,14,-4.674961111666667,4.853781052485299,-0.7060360442939818,2290.3573247347545,1.425,10.031882000000001,18.090035918587283,3.0,-1.0
K4Sn(TeSe)2,mp-569427,62,-3.361898931666667,3.230932891643724,-0.9474997696319448,1414.850197719903,1.5606,8.565509,15.24579,3.0,-1.0
KBi(PSe3)2,mp-569435,14,-4.0788657217500015,4.457485885484075,-0.3986183371705359,1167.929795630576,1.6574,7.744371000000001,12.802560411930266,3.0,-1.0
TiHg6As4Br7,mp-569456,205,-2.6825087977777766,6.816847493747237,-0.4707013751851853,2056.3389073339927,0.0,12.716421,12.716421,3.0,-1.0
K8Tl11,mp-569570,167,-1.96730409,5.347134009108789,-0.13249491336842115,1590.6259412140191,0.0,18.342308058826536,18.342308518082344,3.0,-1.0
K5Na(Ti2Se9)3,mp-569806,159,-4.680169462948718,3.875246288956493,-0.8691641052978099,2260.420600008213,0.8224000000000002,13.624905376310144,14.060204,3.0,-1.0
TiBr4,mp-569814,205,-4.1202245622500016,2.595818698356512,-1.231584926916667,1880.6240303229674,2.8424,12.343377,12.343377,0.0,1.0
Ba3SiI2,mp-569842,70,-3.503862695,4.237719037712877,-1.1321540716666665,1087.5730695880372,0.2538999999999998,8.770704133410556,16.54025115789461,3.0,-1.0
MoCl5,mp-569855,62,-4.1394120175,2.4779248626313684,-1.2869290318833333,1464.6693530769696,0.0,6.488178,18.267614000000002,0.0,1.0
Rb4P2Se9,mp-569862,15,-3.7429991506666673,3.5172907799872597,-0.6622050632157738,1052.288460109568,1.4341,7.342755470024656,19.60804241701667,3.0,-1.0
K14(Tl7Cd3)3,mp-569896,189,-1.7884450061363637,6.115114102805103,-0.11921078618181853,1588.8535606119751,0.0,10.216635725280607,17.576703,3.0,-1.0
Cs(BBr)6,mp-569897,148,-4.613396984423077,3.1149319223770044,-0.7062191200331562,1444.024500857377,2.8672,17.21554288459182,17.215543230905062,2.0,1.0
Sc3Zn17,mp-569900,204,-2.257966831375,6.30100643013872,-0.23731439712499985,1314.3262519282237,0.0,11.9520304540355,11.9520304540355,3.0,-1.0
K13Na2W7N19,mp-569918,2,-6.966720860365854,4.263004219592776,-0.6528587238021135,1641.6570295498218,1.5516,6.803071000000001,19.451110423295145,3.0,-1.0
Tl7(Ag18Te11)2,mp-569932,225,-3.01045454,7.953343264171139,-0.12343596400000015,1695.5721593410822,0.0,13.384754964615604,13.384754964615604,3.0,-1.0
Na15SnGe8P,mp-569991,63,-2.8078351098,2.778138873064357,-0.1627605575428572,1285.8675744834006,0.008600000000000385,10.943869020954606,11.254978,3.0,-1.0
K3Mo2Br9,mp-570000,176,-3.8619285542857145,3.6608203153020455,-1.0222984285,932.8785763797972,0.9694,7.618366440523193,18.559693,3.0,-1.0
Ti6Tl5AgSe27,mp-570021,159,-4.640423112820511,5.410150534757432,-0.6300799615371255,2178.5339173867205,0.6648000000000001,13.40680773009414,13.995323,3.0,-1.0
Mg21Zn25,mp-570025,167,-1.4850773627173914,4.359268256820648,-0.06987146489130433,1634.6332584118118,0.0,15.042428453624435,15.042428640646328,3.0,-1.0
Bi8AsAuCl9,mp-570053,14,-3.5471004269736843,6.523073147792586,-0.8977355208863159,2304.117468451485,1.3163,10.520380000000001,15.137072,0.0,1.0
Ba11(CdSb2)6,mp-570121,12,-3.4067950537931035,5.554578371773179,-0.7794146203448281,1090.025004641347,0.16369999999999996,13.422158677109914,17.528547302959822,3.0,-1.0
SnHg7(P2Br3)2,mp-570135,198,-2.42328900125,6.724305815136838,-0.3338424959325397,2100.1841725053782,1.6483000000000003,12.806166000000001,12.806166000000001,3.0,-1.0
Mg44Rh7,mp-570153,216,-2.5328568711764707,2.895526225497936,-0.1414357478431372,2052.7970928796094,0.0,14.26550030120388,14.26550030120388,3.0,-1.0
Mo15Se19,mp-570170,176,-7.238806967352941,6.123546913359304,-0.5003668636626837,1594.1378319064584,0.0,9.62931799210292,19.851996,3.0,-1.0
Ga2Te2Br7,mp-570186,14,-2.8337314540909087,3.62837496619272,-0.66997885,1746.35875319456,1.3212,10.473173,14.376409200663463,0.0,1.0
CsZr6MnI14,mp-570192,64,-4.72960145340909,5.030255854481192,-0.9714428519357368,1658.37496254546,0.9522,11.141017383422128,13.416273,3.0,-1.0
K4Sr2SnAs4,mp-570311,185,-3.4478591303030304,3.3185794868923866,-0.6781678785151516,2251.782951396441,0.5377000000000003,7.765377,18.298549868000634,3.0,-1.0
Cu8GeSe6,mp-570393,185,-3.9931101278888885,6.3624102468266335,-0.1003001224930554,1651.716945860069,0.3185000000000002,11.785478999999999,12.721223003003605,3.0,-1.0
TiHg6P4Cl7,mp-570405,205,-3.05825831125,6.167934029426697,-0.8278319507188358,1748.2939388875088,0.0,12.046794,12.046794,3.0,-1.0
CsNb6I11,mp-570455,182,-4.9147359925,5.176651580745865,-0.5665486937739459,1338.4601277245226,0.0,11.278504016727796,12.149875,3.0,-1.0
TcBr4,mp-570480,61,-3.6686431505,3.91943089632428,-0.2869779364999999,1415.4456627620568,0.6025,6.482693,15.995966000000001,1.0,1.0
Se,mp-570481,14,-3.49591147765625,3.438407241333924,0.0,2440.500485179196,1.6545,10.153863000000001,15.739181715003642,0.0,1.0
Ca10(Al2Ge3)3,mp-570487,166,-3.8664912282,3.392442871920386,-0.5010230492000001,1190.839956389646,0.0,10.710808011602207,10.710808701851134,3.0,-1.0
Rb5Ta(TlAs2)2,mp-570566,62,-3.7761427852083336,4.9704922175887685,-0.43279048750000015,1759.5826856366236,1.4405,8.020344,19.487842999999998,3.0,-1.0
RbAg2(AsSe2)3,mp-570593,14,-3.761941255416666,4.734807341144932,-0.2954020754079855,1402.455425028147,1.1454000000000002,7.822502,20.309964398065226,3.0,-1.0
Cd3As2,mp-570634,142,-2.509895043875,5.978593408912383,-0.09251382587499997,2164.546750559409,0.0,15.877326867065847,15.877326867065847,3.0,-1.0
Ba14Na21CaN6,mp-570644,12,-2.754501535,2.483201488100851,-0.2736986498638093,1691.4868278477563,0.0,12.421190995178685,16.264112573589376,3.0,-1.0
Hg6BiAs4Cl7,mp-570652,205,-2.5422426356944445,6.6649545778954735,-0.7019344714066666,1953.6720823224273,1.2956,12.501167,12.501167,3.0,-1.0
Ba4Ag3Ge20,mp-570662,223,-4.210763005185185,5.771531425673118,-0.1872775077777778,1338.2710220739905,0.0,11.019994,11.019994,3.0,-1.0
TaI5,mp-570679,62,-3.700698169375,4.8198626746902296,-0.4543913852083339,2247.566399225373,1.1727,7.124536999999999,20.917251,0.0,1.0
GaI2,mp-570738,161,-2.500438337777778,3.91128889686255,-0.4750647602777782,1648.2671768700088,2.3838,15.839489064731257,15.839489301977196,0.0,1.0
Zn13Sb10,mp-570748,2,-2.520573035543478,6.172395055039813,-0.013326108152173726,2225.299537289013,0.4714999999999998,10.983661,17.592088357457765,3.0,-1.0
Nb2Tl3CuSe12,mp-570757,14,-4.530404964444443,5.840488900551256,-0.4560875521180547,2058.4737701064455,0.9825999999999996,9.833250999999999,17.325911995460267,3.0,-1.0
SbCl5,mp-570796,14,-2.87328245,2.385375464053205,-1.1402397627166672,1665.2898526803656,1.852,10.138380999999999,13.444282954641688,0.0,1.0
Cu2P8Se3I2,mp-570817,57,-4.471233251166667,3.4080276395311184,-0.13520259154017916,1686.9751917777085,1.3438999999999997,9.437791,13.917832999999998,2.0,1.0
AlHg2SbCl4,mp-570828,33,-2.941880285625,4.547250139468499,-1.254712572255,2020.826705006412,0.8828,8.980275,18.045404,3.0,-1.0
K5Ag2(AsSe3)3,mp-570836,62,-3.6130560657894737,3.788103666990279,-0.6310736839172151,2361.219653196758,0.9520000000000001,12.813689,14.3408,3.0,-1.0
Ca21(Zn18Ni)2,mp-570883,227,-1.9618399697457627,4.337118809438613,-0.2833884307627121,2537.449205829395,0.0,15.309844691114602,15.309844691114602,3.0,-1.0
K4Sn9,mp-570900,14,-3.3403718307692314,3.986222084985663,-0.2228531782307696,2040.8299471078512,1.1233999999999995,8.46889,16.724473155560982,3.0,-1.0
ZrP2NCl11,mp-570966,64,-4.2331181251666665,2.023595811184872,-1.4918444395255246,1828.7999485528687,2.8614,11.099991733386336,16.277779000000002,0.0,1.0
Sr4Sn2Se9,mp-570983,55,-4.319646524666666,4.968755390737687,-1.2369617231840275,1735.868425773024,0.7311000000000001,8.753442,16.36044,3.0,-1.0
TiHg6As4Cl7,mp-570995,205,-2.9155698401388888,6.063920066121305,-0.8527362477029629,1970.8365511181128,0.0,12.537671000000001,12.537671000000001,3.0,-1.0
CuP4Se4I,mp-571015,64,-4.270831749,3.472253891312498,-0.1448308848660716,1205.4967229933804,1.6639,9.83523969541241,12.609005,2.0,1.0
KY(PSe3)2,mp-571057,19,-4.72916515625,3.897859823693744,-0.7912740913372026,1130.999280103488,1.8831,6.8490350000000015,21.871138000000002,3.0,-1.0
Nb3Se10Cl3,mp-571061,11,-5.1419754978125,4.173122848928584,-0.8279390711385934,1869.677948878811,1.0930000000000002,7.811681,19.292865,1.0,1.0
Na7Ga13,mp-571095,166,-2.6071667908333334,4.123350219701506,-0.17877643837500018,2578.978828104102,0.0,15.70880987573591,15.70881054122256,3.0,-1.0
Sr11Al4Sn3,mp-571154,225,-2.9337701352777774,3.580488086585189,-0.4006972090740742,1324.4250947412613,0.0,12.326718158993984,12.326718158993984,3.0,-1.0
Ga2PbSe4,mp-571171,70,-3.9871834414285714,5.744934129582437,-0.5939714434821433,1531.9011278627497,2.0313,12.583302665385785,15.411767802333154,3.0,-1.0
GaHg2SbCl4,mp-571190,60,-2.64767877,4.765688061930044,-1.0501960975675002,2047.3424447291284,0.7424999999999999,8.985617,18.222801999999998,3.0,-1.0
Tl3BiI6,mp-571219,14,-2.6046032285,5.978534698929383,-0.5926963345,1759.3330769986014,2.4866,9.27899,14.016481416816278,2.0,1.0
Rb5Sn(PSe5)3,mp-571228,2,-3.81451234875,3.635130519453603,-0.5815635168071059,1665.8425751577802,1.0909,7.4933039999999975,19.685201314626397,3.0,-1.0
ZrI4,mp-571235,13,-3.8534212273333335,4.166536162586308,-0.9246710093333336,1431.9813355546617,2.0148,8.852047,18.548254393438754,1.0,1.0
GeBr4,mp-571246,205,-2.84562493175,2.960611264422317,-0.6114781287499997,1760.059268666855,2.9647,12.073757,12.073757,0.0,1.0
CuHg3As2Br3,mp-571268,15,-2.401706568333333,6.834695748598354,-0.2640105466666667,1537.7318045419486,0.2734000000000001,13.568553977809465,15.385893575566714,3.0,-1.0
Rb2BaNb2Se11,mp-571293,14,-4.8016649496875,4.593988786879092,-0.8930602428613281,1970.1478203630688,1.5114999999999998,8.011118,17.29627384993525,3.0,-1.0
InHg6As4Cl7,mp-571341,205,-2.5102808566666663,6.436632293467906,-0.7332143912677778,1925.804325678463,1.3829,12.441442,12.441442,3.0,-1.0
CsZr6BI14,mp-571410,64,-4.697710793636364,5.118563316434741,-1.0523846785044408,1601.133070626066,0.7685999999999997,11.020716829783122,13.226738000000001,3.0,-1.0
RbNa5(WN3)2,mp-571412,14,-6.4202791661607135,4.574218840683732,-0.6213590789069039,1893.9167502613975,1.8426,9.428201,19.348628148319584,3.0,-1.0
Ba3(PSe4)2,mp-571415,14,-4.512336944038461,4.606296193607894,-1.0853541721840658,1594.2580062616296,1.1364999999999998,6.992503999999999,18.33855179895145,3.0,-1.0
Sr14Al8Ge3,mp-571416,148,-3.017002228,3.300348301056085,-0.3175451179333333,1670.8817830568184,0.047400000000000116,15.074491589322207,15.074491884089825,3.0,-1.0
KPSe3,mp-571452,152,-3.921496618,3.3009150155829663,-0.5192127697205355,926.481090458018,1.3151,7.447718010199499,19.286769,3.0,-1.0
RbPSe3,mp-571464,152,-3.8986989006666666,3.589224358803086,-0.5223880272872024,980.776120056398,1.1471,7.600599407635162,19.603948000000006,3.0,-1.0
SnHg7(As2I3)2,mp-571478,198,-2.08945769861111,6.968478235155344,-0.20524193638888846,2462.9510910605372,0.9464,13.504710000000001,13.504710000000001,3.0,-1.0
Cs3Mo2I9,mp-571531,194,-3.5156081342857144,4.554239524106822,-0.7946362263423649,1263.5597128573254,0.9469999999999996,8.444874505967809,20.458734,3.0,-1.0
TlHg3Sb2Br3,mp-571582,57,-2.2291092602777782,6.946096238418626,-0.4022785741666668,1232.9657344553034,0.6522000000000001,6.763563,13.51803,3.0,-1.0
LiW6CCl18,mp-571612,176,-5.5652268048076925,4.541912953364027,-1.2785429598851272,1287.0306973158529,0.0,9.221871634148947,17.475118,3.0,-1.0
SbS8Cl5O,mp-572131,62,-3.7749657245,2.0591732899674327,-0.9464430226699998,1843.5977372481693,1.4808,9.473583999999999,17.609455,0.0,1.0
Cs3AuO2,mp-572441,14,-3.630074227638889,5.6568629040850285,-1.2215042953544062,2211.0276517450125,1.7916,10.359672999999999,20.107948999999998,3.0,-1.0
K3AgO2,mp-572510,19,-3.637334453958333,3.1275030023336936,-1.1948204903194444,2184.6303895340984,1.8096,12.512159,13.921625,3.0,-1.0
SbPS4,mp-572597,2,-4.611601314027777,2.665293353861949,-0.7058935525396824,2100.7869258180144,2.0906,6.387481,23.78762486652566,1.0,1.0
TaP4(SCl)5,mp-572763,14,-4.868565372166667,2.3039515796529235,-1.058890352580714,1852.0961708317325,2.136,7.302355,18.74992964747252,0.0,1.0
GeS2,mp-572892,14,-4.594256235625,2.567911043269645,-0.7379203727083331,1415.0766085710327,2.2648,6.8561,16.427332,2.0,1.0
WSCl4,mp-572970,14,-4.880682056875,2.9039457571945686,-1.3062620162358332,1636.4026134174192,1.9731,9.605947,13.637977,0.0,1.0
CsNb3SBr7,mp-573274,14,-5.038193398333333,4.622524616883704,-1.1939606367546702,1441.2469668662088,0.00029999999999974486,7.1606039999999975,19.572162,3.0,-1.0
Nb2Se17Cl12,mp-573340,2,-3.79904337516129,3.168301420603868,-0.7448718615794758,2047.7705966820715,1.3182,11.986505000000001,13.885997378826918,0.0,1.0
Ag5Te2Cl,mp-573465,62,-2.9644727478125,7.154130051143713,-0.25156864113666666,1541.1936346594814,0.19849999999999968,7.797811,14.100852,3.0,-1.0
Li17Sn4,mp-573471,216,-2.6641686304761905,2.5895488490797662,-0.3551221469841269,1900.773177103369,0.0,13.904277630461856,13.904277630461856,3.0,-1.0
Ba2In2Se5,mp-573635,61,-4.235044404305556,5.108878847773123,-1.2549481256076391,2337.8500275694064,1.3946,12.487584,13.930916,3.0,-1.0
Li22Pb5,mp-573651,216,-2.517372549074074,3.927075229687916,-0.27442668179012353,2010.540663569022,0.0,14.166936686974287,14.166936686974287,3.0,-1.0
Cs3As11,mp-573812,15,-4.146344319464285,3.838974872183029,-0.2937364929495071,2115.769791461541,1.3884,10.385561135037145,19.911641135188454,3.0,-1.0
K2ZnN12,mp-574148,61,-6.8136585325,2.1180200708656214,-0.2196446821373324,1954.9079317298874,3.7076,11.378213,14.533617000000001,3.0,-1.0
Ca5Pb3,mp-574272,186,-3.150326846458333,5.0536820498629815,-0.5045842702083329,1620.5370585886474,0.0,6.919778,16.444402102153212,3.0,-1.0
Li17Pb4,mp-574275,216,-2.5427477834285708,3.9612501684112167,-0.2902584018412697,1984.4661909730605,0.0,14.105426882292432,14.105426882292432,3.0,-1.0
CuAsSe,mp-574367,60,-4.2084550175,5.453005892930771,-0.1237094999479172,1589.055421011606,0.01889999999999948,6.870682,19.522363000000002,3.0,-1.0
Al(SeCl2)2,mp-574529,55,-3.560662882857143,2.374069336487537,-1.310262498246786,1828.1541691957239,1.3831,9.352022,13.990362,0.0,1.0
Tl4Pd3Cl10,mp-574580,122,-3.3077870433823526,5.106152195792845,-1.1004478011823526,1939.9346823757635,1.1367,13.664421094022828,13.664421094022828,0.0,1.0
Na2SnAs2,mp-574684,142,-3.545936929,3.743886619762129,-0.3545143093333329,2232.092808993232,0.4777,14.840434727091017,14.840434727091017,3.0,-1.0
Sr11InSb9,mp-578752,45,-3.789785873095238,4.901833008549961,-1.0042149837301586,1473.247114768754,0.8611,12.717740613085368,12.717740613085368,3.0,-1.0
SbPb2S2I3,mp-578882,14,-3.54563943375,5.941181299600147,-0.6616003139062498,1096.7478719307567,1.7237999999999998,7.804178,16.748202,2.0,1.0
Cs4Tc6S13,mp-579058,15,-6.01513815152174,4.209671555151104,-1.193651315971701,1212.143572308888,0.9312999999999998,10.058322204733402,13.933734956998427,3.0,-1.0
K2In2Sb3,mp-579637,14,-3.2163640800000004,4.3496051277841605,-0.3433399265714289,2055.7815906201295,0.8028,7.726253,17.09409842134957,3.0,-1.0
Na3InBi2,mp-580161,14,-2.6966694922222216,4.878599024990211,-0.2840513255555557,2457.8193113289226,0.025800000000000267,9.664025,19.568034558290673,3.0,-1.0
Cs2Te10Mo9,mp-581150,148,-6.665814398095237,6.379562605495268,-0.4355952878981939,1252.137975125684,0.0,14.5453472825067,14.545347510357047,3.0,-1.0
Cu2S,mp-581212,14,-4.236521266111111,5.871411411863519,-0.3460535304861112,2160.5959945277928,0.3475000000000001,11.91582681,15.134035690186293,3.0,-1.0