pretty_formula,task_id,spacegroup.number,final_energy_per_atom,density,formation_energy_per_atom,volume,band_gap,min_abc,max_abc,Dimension,Dim
Cs2GeTe4,mp-662549,62,-3.294949285,4.78617375012984,-0.5825155251231523,1178.0183178183865,0.5379,7.7377759999999975,12.87657,3.0,-1.0
B2Pb2S5,mp-662553,92,-5.095944396111111,5.290077281856648,-0.857163616550926,1497.5319837326251,1.6669,9.746976,15.762907,3.0,-1.0
SbRu2C6Cl7O6,mp-662588,14,-6.263562335681818,2.5683395028265084,-1.1594980447872727,1914.1043228476715,2.4952,9.395273,17.09306751449116,0.0,1.0
Ag3AsSe3,mp-662599,62,-3.483891768214286,6.3310677588622415,-0.10610307564732173,1999.8841113957087,0.8906000000000001,8.237619,21.106004000000002,3.0,-1.0
TcC4IO4,mp-662721,14,-7.579743975625,2.7944540053597806,-1.002302255625,1601.7729942301835,2.3319,10.160541,13.31951396460892,0.0,1.0
Ba14Na14CaN6,mp-6645,225,-3.0446599525714286,2.757388793103726,-0.33062693374133323,1426.3765587574364,0.0,12.635227433412108,12.635227433412108,3.0,-1.0
Ba4LiW2N7,mp-6665,13,-7.580927711428571,6.32011452252925,-1.0689016799995232,1074.0507318494342,1.9822999999999995,6.575305,17.526233440649648,3.0,-1.0
Re6Te7Se8,mp-667286,61,-6.259407033928572,7.351373833063373,-0.3242850605357148,2387.225516945359,0.9527,12.8593,14.383823000000001,3.0,-1.0
Cs7Cd3Br13,mp-667295,140,-2.78154109152174,3.926419265753928,-1.463431052196402,1950.7543406110385,2.9374,14.266111661116915,14.266111661116915,3.0,-1.0
Ag2Pb8Cl4O7,mp-667327,14,-4.722359771309524,7.310081388744856,-1.3842002115534924,1932.7861655986762,2.0734,8.262542,18.413755,2.0,1.0
PbN6,mp-667338,62,-7.257197155476191,4.529275318381045,0.08958572962666674,1281.3062466794674,2.2793,6.730475,16.492396,3.0,-1.0
Re2(HgO2)5,mp-667343,14,-5.49365386,7.579145888825664,-1.4428238080882352,1345.5457792286265,1.1042999999999998,8.883351,12.40367459550677,2.0,1.0
CsY10(C2I9)2,mp-669309,2,-5.187826218787879,4.765649747682934,-1.2514788437756872,1168.7650689530528,0.2173999999999996,11.329063,11.502671232118475,3.0,-1.0
In7Te10,mp-669311,155,-3.2947537070588235,5.3118786717888655,-0.3127069182352943,1300.2805539083358,0.8148999999999997,10.917476411236436,10.917476417037866,3.0,-1.0
Cs3Nb2S11,mp-669313,14,-5.13214682171875,3.0661999450506414,-1.3139152134792562,2030.305259867997,1.5397,8.36766,20.121381238474907,3.0,-1.0
Cs3CdI5,mp-669317,62,-2.5028161638888893,3.9720847426290535,-1.2551317248659006,1915.7658672654397,2.7925,10.330175,15.326718,3.0,-1.0
Ba5Si3,mp-669320,130,-3.56062939375,4.264651683319678,-0.32677986750000043,1200.6565102296238,0.0,8.415324,16.954192000000006,3.0,-1.0
ReTe3Br5,mp-669328,4,-3.619514976111111,5.075188173016218,-0.2796191233333332,1267.5604259229574,1.2816,8.893907,12.745045373420565,0.0,1.0
K2Mn(SnSe3)2,mp-669410,130,-4.356948164772727,3.9580466223368,-0.6863011702016063,1416.8781586481366,0.8791,8.428643,19.944226,3.0,-1.0
Ba3Bi6PbSe13,mp-669415,11,-4.263211136956522,6.6674193728514615,-0.8607496313247287,1444.2784597012796,0.8085,4.3340819999999995,18.94102341888432,3.0,-1.0
Cs3Cu2(BiS2)5,mp-669419,58,-4.1664477595000005,5.5148399297857615,-0.9132132257521556,1138.9914483992395,0.4603000000000006,4.1145,18.199465,3.0,-1.0
Cs3Bi2I9,mp-669458,15,-2.698191124285714,4.555602069914749,-0.9708776049137932,1427.9968897068304,2.3629,8.649408945554143,22.00995998034004,3.0,-1.0
Cs3Sb2Cl9,mp-669473,62,-3.3866719633928573,3.2699403995873166,-1.7988956500452218,1952.6941623592325,2.4583,7.753467999999999,18.963766,3.0,-1.0
PtI4,mp-669496,61,-2.56323682275,6.212422615679157,-0.1298451887499997,1502.6201481763824,0.6923999999999997,6.990139999999999,16.00809,1.0,1.0
Ba4Cu3Ge20,mp-669542,223,-4.366261458518519,5.749944716103405,-0.2020369981481483,1266.4957928842118,0.0,10.819352,10.819352,3.0,-1.0
CsRe6S8Br3,mp-669564,14,-7.0227955344444455,6.288026606564325,-1.008503087940612,1844.732210235936,1.5022000000000002,6.431876,18.853949,3.0,-1.0
Al(ICl2)3,mp-672352,15,-2.65355839975,2.6596977578519088,-1.069486446206,1549.37896312978,1.7106,14.497475980307364,14.975431871370555,1.0,1.0
Tl6PbI10,mp-674339,159,-2.534747089117648,6.458831838652498,-0.5863534950000002,1389.6261223643273,1.2149,10.889901327338183,13.530674,1.0,1.0
Ag33(PbO3)14,mp-674968,2,-4.459879537191012,8.235350768039401,-0.8220215958707864,1438.1501589797815,0.0,8.879978999999997,19.247777575735878,3.0,-1.0
KBa2As5,mp-675063,8,-4.231423209583333,4.62742267197633,-0.7009316305833332,1482.0982448421685,0.2550999999999997,11.679985888306758,13.022420991920436,3.0,-1.0
Bi5(S2Cl)3,mp-675345,1,-4.02871403125,6.246669823586219,-0.8823094825735721,1428.7196476763556,1.4486999999999997,12.219519,12.315285354260249,3.0,-1.0
Tl3In7Se10,mp-675519,2,-3.547706955,6.246146566107077,-0.4824139636718755,1173.1839439512069,0.9703,6.766217,16.65851091926208,1.0,1.0
KNa4SnSb3,mp-6758,14,-2.911849156666667,3.540848324665945,-0.3823398912592594,1153.746338585657,0.4048999999999996,8.391658999999999,17.430921632725788,3.0,-1.0
RbAg4I5,mp-676206,1,-2.48602619425,4.851600328683974,-0.4929440781666667,1576.4276384540005,1.6335000000000002,11.417882,11.79739438838886,3.0,-1.0
RbMo3Br7,mp-676313,9,-4.975898676136363,4.1526911890983875,-0.887176045,1491.7025124275094,2.3358,10.466524711592859,12.928375762890749,3.0,-1.0
RbAg4I5,mp-676391,1,-2.43306349075,4.413184766477034,-0.43998137466666665,1733.0334562392109,1.2412,11.786685,12.245023874370196,3.0,-1.0
KBiO3,mp-676536,1,-5.102570433111112,5.509511103296839,-1.555084500461111,1606.2497196394145,0.18619999999999992,8.754482000000001,22.17956562275323,3.0,-1.0
RbAg4I5,mp-676687,1,-2.45690374825,4.665443689392892,-0.4638216321666668,1639.3289380511587,1.1348,11.690494000000001,11.942511033334364,3.0,-1.0
K9(NbAs3)2,mp-676737,7,-3.899552020588237,2.903763668106935,-0.4789101951176474,1129.1064205672067,0.6128,9.342102,12.842989651859494,3.0,-1.0
RbAg4I5,mp-676813,1,-2.47652012075,4.668625234556323,-0.4834380046666666,1638.2117785465741,1.7041999999999995,11.75913,11.812036892788644,3.0,-1.0
Ag13(PbO3)6,mp-676840,1,-4.496841044054055,8.019274249177183,-0.8341089115990991,1214.8608503632336,0.0,6.002268,19.46632733731972,3.0,-1.0
KInI4,mp-677262,45,-2.4761945088888893,3.0210828371767566,-0.8165056527222221,2181.674735157734,2.5931,14.477457088804615,14.477457088804615,3.0,-1.0
Mg54Ag17,mp-678,71,-1.9563858471830984,3.5246712194967738,-0.061053808356807474,1482.2479901916593,0.0,12.444013312049494,12.444013312049494,3.0,-1.0
Hf5ZrTe8,mp-678358,1,-6.759835451071429,8.048673589806484,-0.7969745710714287,1654.1892762054458,0.0,10.980428,15.777753375292376,3.0,-1.0
Cu3P15I2,mp-679930,14,-4.9138338705,3.3762248966185844,-0.08658721242857226,1788.4100505522886,1.0114999999999998,9.710036,19.566337,3.0,-1.0
Li4Re6S11,mp-679944,56,-6.8239627999999986,6.090501919595952,-1.0855940803670625,1633.3788342568716,1.5867,9.661252000000001,14.203829,3.0,-1.0
Cs4Ru2Cl10O,mp-679984,61,-3.990382403088234,3.3941526292971638,-1.7012904010631846,2161.032683438757,0.6547,11.997025,14.189619,3.0,-1.0
Re3(SeCl)7,mp-679999,57,-4.862080055441176,4.795026417520806,-0.7102024827486024,1883.220312832992,1.5043,10.491716,14.645551999999999,0.0,1.0
Re3(SeBr)7,mp-680015,159,-4.639578423235294,5.332375304396608,-0.32996385390624994,2081.03217308818,1.3152,9.87311886380717,24.651279000000002,0.0,1.0
RbW3Br7,mp-680048,15,-5.396310358181819,5.275004617621224,-0.7314558797727276,1506.3714752057695,2.688,10.036082906004363,13.158689630064693,3.0,-1.0
Re3(SCl)7,mp-680059,159,-5.150814712058824,3.6617930627365394,-1.0083754496879411,1870.5873341016336,1.6778,9.740974050572664,22.763686,0.0,1.0
K2Re3C2Se5N2,mp-680168,14,-7.051034525,5.327040177861926,-0.5230029098199093,1351.1797056031066,1.3798,9.806593,13.259567,3.0,-1.0
Bi2Pb2S5,mp-680181,62,-4.397922526111112,6.702975597333938,-0.7789989600694448,1967.3573657820998,0.6956999999999995,4.08703,24.464157999999998,3.0,-1.0
CsRe6Se8I3,mp-680185,14,-6.5442603494444445,7.035284298105871,-0.538599507871168,2136.1112539405412,1.1350000000000002,6.675045,20.04158,3.0,-1.0
Cu9Se4(Cl3O7)2,mp-680211,14,-4.589222915151514,4.009019284357884,-1.0183462980737883,1097.1878128253684,0.0,6.359668,15.19452270106205,3.0,-1.0
K2AgC3(SN)3,mp-680232,14,-6.0686485645833335,2.2919548142949377,-0.4844750511818058,2088.390742899824,3.1994,9.968639999999999,20.270503,3.0,-1.0
Rb6Ta4S25,mp-680284,15,-5.264102154428572,3.295813215512616,-1.2601289650892855,2053.847853625246,1.4823000000000002,13.16524345190669,19.33756649677433,3.0,-1.0
Mo3N2Cl11,mp-680300,29,-5.06054528953125,2.503253276832271,-1.170905651445,1872.8200088967728,0.1591,10.358738,13.825044,1.0,1.0
Re(Se2Cl3)2,mp-680308,56,-3.794773160227273,3.59796569823066,-0.7082932551304547,1319.5180893714667,0.14479999999999993,10.817216,11.252207,0.0,1.0
Mo2NCl8,mp-680309,13,-4.8009384425,2.5005632386344616,-1.1941597096327272,1300.2696805422204,0.0,6.863675,18.63876895274055,1.0,1.0
Ge4Se9,mp-680333,29,-4.048565778653846,4.137943864170446,-0.2058492618149035,1607.1090068431515,1.2215,7.16675,18.126352,2.0,1.0
ZnCuTeCl2O3,mp-680388,56,-4.3419120028125,4.09292145963011,-1.3735433065962503,1218.6203437594957,0.0005999999999999339,7.519242999999999,15.797162,2.0,1.0
K3Ta2S11,mp-680400,15,-5.38453886671875,3.0783571131984218,-1.3064363269296884,1794.998822239134,1.6765,12.546320239915607,18.483294612442588,3.0,-1.0
K2In3AgSe6,mp-680403,15,-3.600333272291667,4.3561047110294835,-0.7433437761857641,1531.3168913830375,0.9771999999999998,8.396363584458452,21.929976843078016,3.0,-1.0
K3Nb2S11,mp-680410,15,-5.1425528903125,2.404871082515044,-1.2840094242734388,1811.355553500389,1.4261,12.582544652476303,18.564157010443136,3.0,-1.0
Rb2LiSn4,mp-680436,2,-3.133486973928572,4.177577070522377,-0.2894471979761905,2075.5790170646374,0.9046000000000004,9.83237,15.111356124115071,3.0,-1.0
K4Pb9,mp-680443,11,-3.0652400409615383,6.431704970454468,-0.15328470111538414,2087.3284985328614,0.2810999999999999,9.825483,16.200517112015405,3.0,-1.0
Rb4Pb9,mp-680463,11,-3.0297232623076926,6.466859283761853,-0.15772634538461552,2266.4873775385768,0.3033999999999999,10.202975,16.64658090063476,3.0,-1.0
NaMo6Br13,mp-680472,2,-5.1511737239999995,4.519728024040064,-0.7677459531666664,1203.1415962935237,1.9759,9.597747,14.93094209209486,3.0,-1.0
K6CdPb8,mp-680480,12,-2.6364125504444447,5.7065955399839545,-0.15064855031111096,1749.9319434930405,0.0,15.118494681059651,19.013024358454285,3.0,-1.0
AgMo6Br13,mp-680482,2,-5.108646462,4.7706564881761055,-0.649323501833333,1198.9462465127958,2.0089,9.572348,14.76783678250491,3.0,-1.0
W6CCl16,mp-680486,62,-5.832515272934782,4.892604836382163,-1.1787259186808692,2283.873565481789,0.40200000000000014,10.101455,17.158146,2.0,1.0
K11(In2Bi3)3,mp-680539,2,-2.782120370576924,4.957346414961773,-0.33078192492307706,2009.6665013792663,0.027500000000000302,12.286482000000001,13.955656210377533,3.0,-1.0
Nb3TlVCl11,mp-680696,62,-5.06875390140625,3.7829557016475888,-1.5973892192725003,1622.416917853503,0.0,6.889297,17.220342000000002,2.0,1.0
As2Pb14Cl4O17,mp-680722,15,-5.368467810135135,7.648357758354693,-1.6255755759267565,1504.3350346165244,1.9593000000000005,11.503581247347498,13.190170832948676,2.0,1.0
Ta4Te9I4O,mp-680836,15,-5.336169691388889,6.401642982520323,-0.5549177570138895,1242.910333914872,0.3817000000000004,11.726688151015699,20.67472909605649,0.0,1.0
TeS7Br2,mp-683875,62,-3.626577474,2.1145138902732583,-0.5537691661875002,1607.8750055167236,2.2268,9.760246,13.711625,0.0,1.0
CsRe3(S2Br)2,mp-683890,14,-6.64521182625,5.742193152381057,-1.1057321787931025,1133.1244447115512,1.8816,6.470868,18.925051,3.0,-1.0
MnSb6(Pb2S7)2,mp-683891,14,-4.6330667984,5.486238410181231,-0.7367403853362078,1248.9568644658063,0.4535,4.036004,19.378503,3.0,-1.0
Cu2P8Se3Br2,mp-683899,57,-4.527195065333333,3.350399108563484,-0.17610921570684562,1529.6354201546435,1.2898999999999998,8.954784,13.948535000000001,2.0,1.0
Cs3Nb2AsSe11,mp-683903,9,-4.6368706982352945,4.361703743998877,-0.7543435302690791,1163.4542997535273,1.2863999999999998,10.435209266776251,10.620760908425064,3.0,-1.0
Ag7P3S11,mp-683910,15,-4.042482974761905,4.356091101934834,-0.5057859203217121,1830.8450734822231,1.3805999999999998,12.643329978716087,24.87109545058617,3.0,-1.0
Cs4Re6C4S9N4,mp-683929,2,-7.440549886481483,4.912685192286738,-0.8397094068284858,1380.1092226814746,1.4641000000000002,10.045395,15.288352920224499,3.0,-1.0
Ni13Sn8P3,mp-683937,2,-5.499029751979166,8.06779376757265,-0.3549376993005945,1486.550172272457,0.0,6.463907,20.241608278882925,3.0,-1.0
Nb14S5,mp-683941,62,-9.058514022763156,7.634876022168486,-0.7015024493749991,1271.0468896562234,0.0,3.4044410000000003,19.989217,3.0,-1.0
Na2MoC3SeN3,mp-683943,141,-7.26534407625,2.9982991336834983,-0.4144823158650411,1324.4517854780165,1.6680000000000001,12.24974447127584,12.24974447127584,3.0,-1.0
MgIr,mp-683946,64,-5.550648615131579,10.669655793345466,-0.3312933801315791,2561.0279049674864,0.0,12.361681251323585,16.905914000000006,3.0,-1.0
Al(SeCl)4,mp-683984,29,-3.5505123825,2.787055489007619,-1.0233317549905554,2309.9731655976348,1.105,10.90011,15.256675,0.0,1.0
Ag3TeIO4,mp-684006,14,-4.165546123333333,6.556344524294628,-0.8158079644444446,1951.5323635146767,0.19640000000000013,7.2627130000000015,19.992740586382553,3.0,-1.0
Bi9AuBr9,mp-684015,14,-3.2298756751315785,7.269887827454465,-0.4395320335526318,2555.420540317526,1.0149999999999997,10.876449000000001,15.593807,3.0,-1.0
Nb25S48,mp-684620,8,-7.214161763287673,4.282901789608943,-1.47120094671233,1497.2642477824663,0.0,11.675089230059571,12.586185248969324,3.0,-1.0
Ni23Te42,mp-684997,2,-4.292515683076924,7.607305930009723,-0.21618056461538526,1464.4872695023623,0.0,8.573592999999999,20.015757256350234,3.0,-1.0
Tl2Ag16Te11,mp-685196,1,-2.966562033965517,7.414981662548986,-0.04861333591954015,1584.741695121718,0.0,15.436704364111696,15.500340140911643,3.0,-1.0
Nb12TlTe16,mp-685216,174,-6.437901008448278,7.499948735701225,-0.4423793415517237,1488.2339310752668,0.0,10.829853408265183,14.651948999999998,3.0,-1.0
Ti4P8S29,mp-685300,9,-5.25538297304878,1.987066406729827,-0.9723351414031652,2288.3136577355413,1.071,12.894695547383812,13.452451904486745,2.0,1.0
Cr2Bi28O47,mp-685468,1,-5.861849761688313,8.264892967758644,-1.6573389480357152,1347.6187796933013,1.9261,8.863249,17.12937181175159,3.0,-1.0
Cs10(Mo2N5)3,mp-685609,167,-6.8356419348387085,4.754377923487795,-0.5996753311293653,1477.248886569126,0.0,12.309179405546171,12.309179941156518,3.0,-1.0
Sn5(Mo3S4)12,mp-685779,2,-7.486020112584269,5.475405225609623,-1.00068840511236,1694.2340737746442,0.0,11.332310000000001,14.623321721757545,3.0,-1.0
Nb3(Bi5Cl9)2,mp-685855,143,-4.0631879511290325,5.404130553525347,-1.1027500220541941,1847.736579334192,0.0,11.022591,13.912746456914716,0.0,1.0
Li7(Ga3Te5)8,mp-685906,1,-3.405307324366197,5.068517961511443,-0.4226483197652582,2236.302300159649,0.0,10.372665,20.74481945911561,3.0,-1.0
Ti2(Mo3Se4)5,mp-685942,2,-7.312268024324324,6.561616846534086,-0.5989204827984229,1576.1283332025173,0.0,8.911907000000003,15.271970475116332,3.0,-1.0
Nb24I35Br9,mp-686026,1,-5.066656253676472,5.082409455655868,-0.5004194691911771,2414.659769062008,0.0,11.514184067884704,15.377044530115793,3.0,-1.0
Nb12I21Br,mp-686084,27,-5.018421869117646,5.086069107388756,-0.4638085769117653,2520.337845967396,0.0961000000000003,11.71366,15.521935000000001,3.0,-1.0
Li5TiN3,mp-686129,1,-5.587650414722222,2.368619669437212,-0.9990367577377776,1397.5400245756894,1.5626000000000002,8.452928,21.299282662682934,3.0,-1.0
Li5SiN3,mp-686208,1,-5.2130788954166665,2.190394384744106,-0.8989294602840731,1271.3114833089276,2.1599,8.170761,20.644130578238965,3.0,-1.0
In2(PSe3)3,mp-686581,2,-4.045490880178571,4.276316543132887,-0.2450317128077165,1604.8058553225574,0.7303000000000002,8.169138,17.986929899936733,2.0,1.0
Co2TeBr2O3,mp-687088,56,-4.78430408296875,4.4256403865835585,-1.0814558321874994,1360.574791925206,2.3675,7.836192,16.260082999999998,2.0,1.0
Li10Ge(PSe6)2,mp-696127,105,-3.8716816138,3.316351660152676,-0.8120909747440476,1153.1586697826085,1.0491,9.287435,13.368955999999999,3.0,-1.0
Nb6HI11,mp-696500,56,-4.974026481527779,5.083516471739864,-0.4955983889511113,2553.625951421145,0.1419999999999999,11.560449,15.919856,3.0,-1.0
Bi28Mo2O47,mp-698611,1,-5.8720836385714295,8.283521707281585,-1.6760248882954554,1362.2063778700742,2.0831000000000004,8.87172,17.27511598326092,3.0,-1.0
KCu3Ag(MoO4)4,mp-699550,14,-6.2313626828,4.2969184180017885,-1.6941708995866656,1510.7906043398016,0.4969000000000001,5.114326999999999,20.062139173134177,3.0,-1.0
VCu2BiO6,mp-699707,14,-6.1030399654166665,6.08482690417305,-1.606605312166666,1581.7524186335522,0.0,7.889556,16.478566049691644,3.0,-1.0
AgB11H6CBr6,mp-703539,62,-4.9484493396,2.6673282723255296,-0.35674432396879924,1803.5743098812175,3.2973,11.366295,13.168282999999999,1.0,1.0
Mn3(AgO2)4,mp-704268,152,-5.755461255499999,6.435950092798424,-1.2395868074008118,2242.4638408934734,0.6029999999999998,12.827259981858521,15.737184,3.0,-1.0
Fe2(MoO4)3,mp-704851,4,-6.981977547352941,3.4391816148183656,-2.019276342941177,2284.761009819856,2.4804,9.410478999999999,16.071963313686663,3.0,-1.0
CrBi8O15,mp-705013,11,-5.960792930729166,8.077303250193545,-1.6922385981770829,1614.903802575276,1.9015000000000004,9.802005,14.062054196878385,3.0,-1.0
CrPb5O8,mp-705034,14,-5.905108074375,7.426405110584363,-1.6073504622321428,2175.158535768955,1.8820000000000008,11.979808,15.149519862409669,3.0,-1.0
Li10Sn(PSe6)2,mp-705516,105,-3.8546986656,3.3845881851508617,-0.8196462665440475,1175.1154116766645,1.0869000000000002,9.322181,13.522141,3.0,-1.0
Mo9O26,mp-706490,15,-7.0234233384285725,4.065379359931899,-1.9885922110714287,2090.4001537295026,0.4984000000000002,8.219595010270883,17.173158986526445,3.0,-1.0
B10H13,mp-706664,14,-4.903242380217392,0.9297493518374524,-0.16800349733594172,1731.9015005547,3.409,7.3346350000000005,16.606582887493865,0.0,1.0
Nb10Pb14O39,mp-707290,4,-7.382073282063493,7.096553626273506,-2.325389747757937,2084.328920793342,2.1844,9.505797,17.207168896582402,3.0,-1.0
Zn3Fe15Cu39(Ge3S32)2,mp-707411,1,-4.898227813149607,4.32260213986976,-0.6406856653543301,2304.991193465993,0.0,10.476806478442034,20.97767797376671,3.0,-1.0
KRe3Os3(Se4Cl3)2,mp-720110,1,-5.936519249523809,5.749943482725084,-0.8119296526814281,2325.132527113898,1.3025,13.227726,13.27007800442292,3.0,-1.0
Li10Ge(PSe6)2,mp-721239,1,-3.8828964122000014,3.284648407238968,-0.8233057731440476,1164.2888963472485,1.3131000000000002,9.052848,13.691204021796224,3.0,-1.0
Li10Sn(PSe6)2,mp-721252,1,-3.8668325504000003,3.3666620993457568,-0.8317801513440475,1181.3724161157827,1.3659,9.083082000000001,13.79637071764752,3.0,-1.0
K6Na15Tl18H,mp-733675,200,-1.9015890945,5.484414885265165,-0.09829741366549988,1289.6191709328375,0.004900000000000127,10.884801,10.884801,3.0,-1.0
Ba2SrI6,mp-752450,206,-3.3005626761111118,3.9845037699485584,-1.6703961646296297,1873.2060186300635,2.5702000000000003,13.450418947409297,13.450418947409297,3.0,-1.0
Cu10Bi25O48,mp-757768,75,-5.585934427951806,8.375173702764004,-1.4650324165060231,1314.1166600634751,0.0,8.512548000001704,18.134873000014693,3.0,-1.0
Bi19(O9F)3,mp-759031,173,-5.652212471938776,9.546981232542961,-1.7174110444351027,1551.3492310355914,2.0105000000000004,10.463984,13.084012194491606,3.0,-1.0
H18RuC6(SCl)3,mp-759409,33,-4.880814872903225,1.5649116426988798,-0.4572388635262886,1671.5882035997342,0.3309,8.975158,17.127225,0.0,1.0
Si(Ag4S3)2,mp-7614,33,-3.723113497,5.829803856888352,-0.4615334138055559,1234.39011417375,0.7551000000000001,7.589994,15.213223000000001,3.0,-1.0
Bi24Br10O31,mp-766249,1,-5.210276445384615,7.996756457847647,-1.4972653935192302,1310.3958489304962,1.3989000000000005,8.061874000000001,15.502919221988515,3.0,-1.0
Ba6CaI14,mp-766330,64,-3.358368805238096,4.100391852506447,-1.6985782590476193,2138.8149987084767,3.023,8.470724,15.976227217858446,3.0,-1.0
Ba6CaI14,mp-766337,64,-3.3698328073809525,4.043236408270846,-1.7100422611904764,2169.049422087452,3.0649,13.249097140499234,19.2708,3.0,-1.0