pretty_formula,task_id,spacegroup.number,final_energy_per_atom,density,formation_energy_per_atom,volume,band_gap,min_abc,max_abc,Dimension,Dim
Li4TiMn8O18,mp-769509,26,-7.04558725048387,4.011453671612396,-2.1488126544867105,664.9059500118268,0.0,2.923104,25.150655,3.0,-1.0
Li4Ti4Mn5O18,mp-769512,55,-7.554172147258066,3.725210390600487,-2.617271516040081,697.0851746304083,0.6931999999999996,2.9109130000000003,26.238297999999997,3.0,-1.0
Li4Ti3Mn6O18,mp-769513,26,-7.3865064496774195,3.841716091568772,-2.462981163533044,682.0578007692212,0.5859000000000001,2.909353,25.92411400000001,3.0,-1.0
Li5Co2Ni3O10,mp-769553,10,-5.224449127250001,4.814491526658959,-1.5585333947083335,337.07197839016317,0.0,2.860246262342633,20.58177126115403,3.0,-1.0
Li10Ti11Cr9O40,mp-769567,2,-7.841402673142856,3.7768070612458153,-2.9195928612857145,749.1440195845586,0.0,5.9528499270285895,24.587010239163128,3.0,-1.0
Ag11Hg9,mp-770433,156,-1.6159450525,11.843214432671001,0.07861691358333331,419.4892165593622,0.0,3.219133287965877,46.742527,3.0,-1.0
Li10Fe9CoO20,mp-770651,10,-6.0527949685000015,4.2157103130685165,-2.0310479245833344,374.5671747763165,0.22940000000000005,2.9729740000000002,21.255592474853696,3.0,-1.0
Li4Co3Sb5O16,mp-770677,8,-5.8846945235714285,5.1202404113844056,-1.8877552895833336,693.6018332923462,0.0,6.191362988509478,20.778783518470853,3.0,-1.0
Li10Fe3Ni7O20,mp-771052,10,-5.2395779094999995,4.5480478863098055,-1.5764153234583334,353.34891577927664,0.3378999999999999,2.8488740000000004,24.04624648273166,3.0,-1.0
Li3Zn2Fe19O32,mp-771170,1,-6.39119806125,4.655573717876873,-1.8713658194642853,615.1536582186748,1.2933,6.012474,19.925047341350183,3.0,-1.0
TiMn9O20,mp-771265,12,-7.268163686666668,4.100543017327288,-1.9302800777956641,698.3848343888817,1.6721,5.824587043834268,24.04637747397776,3.0,-1.0
LiZn6Fe17O32,mp-771348,8,-6.1520190525,4.9662842124278805,-1.8152739009523808,622.1618938933024,1.3507000000000002,6.047462689575274,19.924221272999283,3.0,-1.0
Li5Ti2Mn8O20,mp-771355,12,-7.198990005857143,3.920717030705712,-2.3391111973787067,753.8242511760544,0.0,6.053193311248701,24.81875203772148,3.0,-1.0
SbTe,mp-7716,164,-3.738586218333333,6.185587901830058,-0.10243513333333354,401.64850444518237,0.20670000000000047,4.351546535431857,24.492228,2.0,1.0
BaTl2O4,mp-771826,15,-5.003158127380952,8.277007935698629,-1.6281668895238093,734.3815153923953,0.06380000000000008,6.1514162249488535,22.1378203555718,3.0,-1.0
LiZn2Fe9O16,mp-771993,8,-6.281041549285715,4.7690211576228165,-1.8527528526190489,624.2083855466611,1.3744,6.045033587789153,20.01459595844505,3.0,-1.0
Li8Ti6Mn7O30,mp-772622,143,-7.27194688,3.9000920901967513,-2.519392108793585,514.0219153685129,1.0079999999999996,5.0084792081529095,23.661333,3.0,-1.0
Bi3IO4,mp-772910,52,-5.2653728871875,7.850480828625468,-1.4932757096874996,691.9630681672135,2.3641,5.861854,19.995062,3.0,-1.0
K2W3O10,mp-772962,13,-6.953690211666666,5.717817889477539,-2.253768078899999,1376.0619816395892,1.3463,3.8882589999999997,33.200602347386464,3.0,-1.0
Ba10LiW7O30,mp-772977,156,-7.055773982083332,6.943477795498952,-2.7074723046006945,752.6253868529204,1.5209,5.897518926946398,24.942106273070173,3.0,-1.0
Li8Ti7Nb6O30,mp-772997,143,-8.07177961882353,4.166569285764478,-3.0028066511274507,569.1201366365352,0.0,5.195811839535859,24.342573,3.0,-1.0
Li7Ca8Nb12O40,mp-773078,1,-7.892383681194029,4.220455196294206,-3.109554750796019,835.7132956697311,0.0,5.589201731124133,26.75144971985221,3.0,-1.0
V7(WO5)6,mp-773080,1,-7.6135267862790705,5.861577557648497,-2.2454787543604646,549.4770475420937,0.3452000000000002,5.21109,23.279172825643396,3.0,-1.0
Li4MnV3(P2O7)4,mp-774458,4,-7.237806647727273,2.870674396632513,-2.703552420170908,1077.4191392189693,0.1835,4.872657,26.71461864807217,3.0,-1.0
Li8Ti16CuS32,mp-774459,1,-6.215487510877192,3.197896161639129,-1.7096254475438606,992.3190653763415,0.0,7.0395520000000005,23.44277563635437,3.0,-1.0
Li4Ti4Mn4FeO18,mp-774578,55,-7.474216667580645,3.7925471767389487,-2.5935693731170097,685.5026141877837,0.0,2.963243,25.174362,3.0,-1.0
Li4Ti2V3Cr4O18,mp-774596,55,-7.5053768724193555,3.847514818809378,-2.5823264844354834,666.6265916707607,1.5355000000000003,2.976945,24.984886,3.0,-1.0
Li4Co3Sn2Sb3O16,mp-774605,8,-5.9290791475,5.312458656022054,-1.9406705838690481,664.6921488261274,0.0,6.203234390082805,19.828684059107328,3.0,-1.0
Li4Ti3Mn4(FeO9)2,mp-774626,26,-7.243973704516128,3.835807983070997,-2.4329550918804532,684.6788413347716,0.7115,2.9401580000000003,25.38956,3.0,-1.0
Li4Ti3V4Cr2O18,mp-774678,26,-7.620372992903223,3.713992856974239,-2.6967644388978487,685.9572205591463,0.31820000000000004,2.952113,25.588618,3.0,-1.0
Ba6Na2P2Ru2O17,mp-774691,194,-6.706153136206896,5.283435879139692,-2.7166775012089492,883.7995967266463,0.34640000000000004,5.869272299886672,29.624747999999997,3.0,-1.0
Li4V5(Fe2O9)2,mp-774849,55,-6.870543921451612,3.8053838466951775,-2.224891928736559,692.809739102612,1.3839,2.963435,25.797404999999998,3.0,-1.0
Li4V3Sn3(TeO8)2,mp-774857,8,-6.250488081607143,5.029248316241126,-2.1045104172619054,691.9895607733217,0.8983999999999996,6.241839133172617,20.30707128926004,3.0,-1.0
Fe3Co7O20,mp-775826,10,-5.820965247999999,4.3706714458226035,-1.1954804953333331,341.9559475498686,0.0,2.895382,20.587709821069392,2.0,1.0
Li4MnV3(P2O7)4,mp-776134,1,-7.158586928636364,2.872402550944895,-2.62433270108,1076.7709200022473,0.012000000000000007,4.872222,26.67940802851139,3.0,-1.0
Li9Mn21O40,mp-776365,1,-6.994193254571428,4.079837130798504,-2.0784088651845534,755.4712198283992,0.3626999999999998,6.049451,21.07935215432797,3.0,-1.0
Li4Ni3Sn2Sb3O16,mp-776462,8,-5.678609261428571,5.383405145474278,-1.8635772458333333,655.4885486920798,0.0,6.1682615342579314,19.822694107514977,3.0,-1.0
Li4V3Sn3(SbO8)2,mp-776849,1,-6.410590439821428,4.966824609761833,-2.19420561047619,692.8767192656939,0.9455999999999998,6.207448404698745,20.497348377207576,3.0,-1.0
Li32Ti11Cr5O48,mp-777154,5,-6.808006183854167,3.4138584097927005,-2.7462548946180547,864.1585308976089,1.1974,5.079794599412455,38.676947554972365,3.0,-1.0
Li32Ti5Cr11O48,mp-777532,5,-6.509033442291668,3.512174127843072,-2.4632474372222224,851.6815939007305,0.7584999999999997,5.041047346919121,38.57732372629124,3.0,-1.0
Li32Mn5Cr11O48,mp-777689,5,-6.256665734583333,3.628395358844218,-2.2324753387473173,840.5817144884552,0.4708999999999999,5.01568712153001,38.45336428189931,3.0,-1.0
Li32Mn11Cr5O48,mp-777734,1,-6.2287761584375,3.67962658113922,-2.2145352095149327,836.8441773381279,0.6844999999999999,5.0065215881737695,38.44843380749169,3.0,-1.0
Li32Ti5Cr11O48,mp-777735,1,-6.5080454746875,3.4933051750624453,-2.462259469618056,856.2819190867926,0.8674,5.062011274539836,38.58455324510008,3.0,-1.0
Li32Ti11Cr5O48,mp-777936,1,-6.884939381041666,3.4151195086223147,-2.8231880918055534,863.8394236718832,0.0,5.074367,38.68112848150873,3.0,-1.0
TiMn4O10,mp-777945,12,-7.428786045,4.022492704239904,-2.0770812462196018,706.0978780989321,1.4776000000000002,5.845805391959349,24.155659842580995,3.0,-1.0
Li24Mn5Cr7O36,mp-777958,1,-6.247349023611113,3.6277485952432857,-2.225922363028832,632.2319619797049,0.8902000000000001,5.01215,28.87704954650543,3.0,-1.0
Li32Mn11Cr5O48,mp-777960,1,-6.2286974432291675,3.685573152354406,-2.2144564943065994,835.4939522060132,1.0270000000000001,5.002918,38.418513170206964,3.0,-1.0
Mn7(P2O7)4,mp-778008,20,-7.552135297790698,3.465573835378338,-2.5625791523925034,1035.295287001208,0.0,6.605163357163848,23.954442999999998,3.0,-1.0
Li32Mn11Cr5O48,mp-778090,5,-6.229816215625,3.692288383218024,-2.2155752667024324,833.9744244248897,0.7238000000000002,5.007843985250539,38.349022880807645,3.0,-1.0
Li32Mn5Cr11O48,mp-778376,5,-6.2569946153125,3.632177598851195,-2.2328042194764848,839.706404374028,0.7686000000000002,5.016008797073825,38.43013121260458,3.0,-1.0
Ni7(P2O7)4,mp-778386,20,-6.484588415232557,3.7754091145005386,-2.1241726762458484,973.4561046686516,0.0,6.435469838514122,23.747025,3.0,-1.0
Mn2O3,mp-778470,92,-7.48925114175,4.442862741381253,-1.9495093327460693,1888.1982463422955,0.0,8.49554053,26.16167569,3.0,-1.0
Li5TiMn9O20,mp-778500,1,-7.038699921,3.985468502940911,-2.190667846729617,747.4692298973306,0.0,5.876948028155903,24.440713272992788,3.0,-1.0
Li9Bi5O13,mp-779282,14,-5.230582930277778,5.6851681031940595,-1.8296892842129635,1536.7791704458814,0.5128999999999997,5.287415,22.132838308659558,3.0,-1.0
Na3Sb5O14,mp-779294,55,-5.732041288409091,4.586464700995563,-1.912574042386364,1305.93763503813,1.1267999999999998,7.217098,24.415928,3.0,-1.0
Na3Sb5O14,mp-779589,32,-5.746357625113636,4.518584731777653,-1.926890379090909,1325.5559473480605,1.1847000000000003,7.2674699999999985,24.033403,3.0,-1.0
Li5Mn7Fe3O20,mp-779755,1,-6.718050656285714,4.034881984266826,-2.0313384681706528,746.3749330462255,0.0,5.940413167051031,24.52900798379825,3.0,-1.0
Li4MnV3(P2O7)4,mp-780005,4,-7.2379181877272725,2.8812908523701144,-2.7036639601709087,1073.4492614147368,0.1796000000000002,4.8573059999999995,26.66624801701297,3.0,-1.0
Li24Mn7Cr5O36,mp-780441,1,-6.2362106879166666,3.6659306070840607,-2.2192060037403643,628.3122317420183,1.012,5.005865,28.828165246273045,3.0,-1.0
Li14Fe4O13,mp-781016,14,-5.3935055256451605,2.5354417316284814,-2.010712533803764,692.3224483169327,2.3295,5.318665,27.390992999999998,3.0,-1.0
SrCrO3,mp-781082,40,-6.989183848571429,5.0674030385965985,-2.5758788226547624,860.7115343340238,0.5894999999999997,5.5437389999999995,32.25815787918763,3.0,-1.0
Li32Mn5Cr11O48,mp-781106,5,-6.256432629270832,3.6224154060843885,-2.232242233434817,841.9693628887393,0.0,5.022168166495524,38.48053646903085,3.0,-1.0
TaSe2,mp-7926,186,-7.093294744166666,7.546657384340772,-0.8100945490624992,298.25302753164533,0.0,3.4748841565738564,28.52158,2.0,1.0
Li(TiSe2)3,mp-8132,164,-5.815054982,4.137401585952823,-1.157968203739583,250.56254241217715,0.0,3.5771237778757388,22.610885,2.0,1.0
Mn21O40,mp-849596,5,-7.170210351147541,4.135748875875307,-1.8107906551298127,720.1760571895778,0.12419999999999964,5.898197492525492,21.1020091717958,3.0,-1.0
Mn3OF8,mp-849665,1,-5.738233885625,3.538424807232968,-2.5671809275096265,624.7171489877128,0.2099,5.162489,26.951720962061238,3.0,-1.0
Li3Mn5(FeO6)2,mp-849955,1,-6.784937646666667,4.361669479233183,-1.9870721202155703,684.3630032958325,0.1477999999999997,5.105991,29.437877768822066,3.0,-1.0
BaGa12O19,mp-850536,186,-6.0607370790625,6.064903053600736,-2.344369555117188,699.8149714286743,1.9291,5.889395024598452,23.297604999999997,3.0,-1.0
Li8CoNi9O20,mp-850772,6,-4.954651725394737,4.601393866388031,-1.3240138247807025,694.8259853571242,0.0,2.84018,21.14847901476191,3.0,-1.0
Ti7(WO5)6,mp-851115,143,-8.18512002,5.7175981862438725,-2.7367207874612403,557.0634617971048,0.0,5.235984729358939,23.462664999999998,3.0,-1.0
Ba3Zr2S7,mp-8570,136,-6.173817021041668,4.140306572163254,-2.2435467861979164,1313.708392664462,0.8301999999999996,7.170910000000001,25.547619,3.0,-1.0
SrGa12O19,mp-863423,186,-6.0550785090625,5.897675487224307,-2.3458825343880205,691.6672738679565,1.8584,5.875807137646707,23.132975,3.0,-1.0
GeTe7As4,mp-8645,164,-3.78846762,6.06545165344536,-0.01658362124999968,346.4632391917537,0.6219000000000001,4.12339850410132,23.529676000000002,2.0,1.0
SrSn3Sb4,mp-866805,62,-4.050927023125,5.869372021246912,-0.2716518008333337,1053.3414152011837,0.0,4.445517,23.28424200000001,3.0,-1.0
Na2Nb3O6,mp-867955,163,-7.9752974554545455,5.102701651083622,-2.6655508767424236,547.616271413308,0.0,5.168712955359874,23.669056,3.0,-1.0
Li6Mn9O20,mp-867994,12,-6.742118599428571,3.9508957851425697,-2.065131358015331,719.6081049987433,0.0,5.851644342444953,24.297731958126672,3.0,-1.0
K(WO3)3,mp-997523,1,-7.226310269076923,6.408296444977795,-2.2153281478653857,951.7766771185519,0.0,3.882686,32.78131749285085,3.0,-1.0
Ca(BiO2)2,mvc-4646,8,-5.9099742030357145,7.071284227098769,-2.0859270066071427,980.712197159563,1.6300000000000003,7.0258838174001275,23.31469704989557,3.0,-1.0
Zn(CuO2)2,mvc-4855,8,-4.896771194464286,5.74514773033661,-1.1195113623214286,593.0931155404794,0.0,5.940354290828282,19.68024441282529,3.0,-1.0
Mg(CuO2)2,mvc-4858,8,-5.2435236962500005,4.86575961145564,-1.41761580125,588.0621758503677,0.0,5.900738094973713,19.67846918051323,3.0,-1.0
Mn2ZnO4,mvc-4989,8,-6.653175925892858,5.010734367702087,-1.9097304796400496,634.3792754487694,0.0,6.083880346273258,20.133157652818696,3.0,-1.0
BiO2,mvc-5860,1,-5.511205068541668,8.156943067448976,-1.3840833193750004,784.9124310990887,0.02549999999999964,6.166278,22.274614883638506,3.0,-1.0
WO2,mvc-6375,1,-7.585504825416668,9.192675600894233,-1.8860190229166656,623.8162207367774,1.3792,5.703103,20.317796819825546,3.0,-1.0