pretty_formula,task_id,spacegroup.number,final_energy_per_atom,density,formation_energy_per_atom,volume,band_gap,min_abc,max_abc,Dimension,Dim
SrAlGa,mp-1218356,187,-3.19055966,3.770493570363275,-0.3695087980555556,81.17719645092247,0.0,4.404188267564979,4.832498,3.0,-1.0
SrCa,mp-1218357,166,-1.80662244,2.2032766081758512,0.040918126666666936,96.24189579276036,0.0,7.065127341729378,7.065127646838733,3.0,-1.0
SrCa3Si4,mp-1218362,25,-4.1860064425,2.6850210889260686,-0.5100643208333331,198.02375823488137,0.0,3.950932,10.86624,3.0,-1.0
Sr4GaSi3,mp-1218379,25,-3.71644825,3.62869509033248,-0.4587029280208332,230.84736700507688,0.0,4.173456,11.544922999999999,3.0,-1.0
Sr2ZnP2,mp-1218384,187,-3.8864978760000004,3.825704243475368,-0.7934423080952382,131.34139952828784,0.0,4.248144326548358,8.403738,2.0,1.0
Sr3CaAl8,mp-1218404,160,-3.3622737491666665,3.0939751196051652,-0.27571955916666663,278.4351980328186,0.0,9.968003481361,9.968003606985905,3.0,-1.0
Sr9CaSi6,mp-1218424,87,-3.514562944375,3.245017777950875,-0.4043869893750003,510.27190446586684,0.0,9.749292260067751,9.749292260067751,3.0,-1.0
SrAlIn,mp-1218590,12,-3.0687210916666667,4.571006142150087,-0.3398074872222221,166.6854493909967,0.0,6.25934620294564,8.034942161489218,3.0,-1.0
Sr2Si3,mp-1218710,44,-4.245334164,3.121425168348776,-0.31435325066666664,138.04722287285006,0.0,8.084465456367415,8.084465456367415,3.0,-1.0
Sr2Si3Ni,mp-1218730,187,-4.623613391666667,3.923187754197879,-0.3844398505555559,134.67791822662215,0.0,4.082625281068299,9.330108000000001,3.0,-1.0
Sr2LiMgSi3,mp-1218749,36,-3.709580936428572,2.9839100826037503,-0.4004227245238096,323.59505897018863,0.0,7.185339999999999,10.013093340725481,3.0,-1.0
Sr2GaSi,mp-1218812,38,-3.409800425,3.8133736951171433,-0.4517074177083331,118.89936250074274,0.0,4.259531,6.365348053762653,3.0,-1.0
Sr2AlGa3,mp-1218855,187,-3.1350262966666667,4.274868745683157,-0.4335554893055556,159.80141183627052,0.0,4.4031896555907055,9.517331,3.0,-1.0
Sr2Al7Ge,mp-1218856,99,-3.676434525,3.268975820109125,-0.25433240783333344,221.85594393920258,0.0,4.473141,11.087813,3.0,-1.0
Sr2Al3Ge,mp-1218857,187,-3.5412158466666668,3.35199563700964,-0.3347628713888889,162.89583272929104,0.0,4.41988191882781,9.628486,3.0,-1.0
Sr2Al3In,mp-1218865,8,-3.1898537966666667,3.8931013044766583,-0.295291508888889,158.24513393429578,0.0,6.158680069987156,7.954126470585253,3.0,-1.0
Sr(CaSi3)2,mp-1218893,12,-4.608470493333333,2.770273662084791,-0.3581854785185183,201.5761221754544,0.0,6.416976134195374,8.332886607704499,3.0,-1.0
SnSeS,mp-1218912,156,-4.2216995200000005,4.756631238362117,-0.5622084534895837,80.20044509414396,0.9221999999999996,3.7944893639857518,6.431902,2.0,1.0
SnP,mp-1218948,164,-4.694068175,4.785522252094972,0.017360683214285192,103.87820653340208,0.0,4.176308154128117,6.877153999999999,2.0,1.0
SiGe,mp-1219182,216,-4.99942909,3.823847394474847,0.024741847500000524,43.74092648009269,0.8585000000000003,3.954889239369669,3.954889239369669,3.0,-1.0
Si3P3Rh,mp-1219203,1,-6.032191521428572,3.9287227399886566,-0.3350333051020412,118.38179201875765,0.7702999999999998,4.920998,5.537027348800527,3.0,-1.0
ScAlCu,mp-1219356,38,-5.139169933333333,4.553274194311358,-0.4134193983333325,197.63849309153824,0.0,5.189103291073804,8.388128,3.0,-1.0
ScAlNi,mp-1219369,38,-5.878585344166668,4.6445974788271815,-0.5925248058333334,186.8128566260708,0.0,5.113458922076621,8.186187,3.0,-1.0
ScAlCo,mp-1219393,38,-6.210852125,4.658808888152022,-0.4820645483333337,186.58487601208688,0.0,5.117284746947743,8.144498,3.0,-1.0
Rb2Zn3GeAs4,mp-1219647,21,-3.214606712,4.753677244080025,-0.3146266669999996,258.31589120826214,0.0,5.882675,8.015998526020947,3.0,-1.0
Ba,mp-122,229,-1.91897083,3.5830541054190608,0.0,63.64314958406352,0.0,4.356367588656863,4.356367588656863,3.0,-1.0
Ni2P2(SeS)3,mp-1220140,1,-4.674700809,4.062461647839626,-0.3453458973549111,209.4483036029604,0.0,5.9715489999999996,6.995477221024598,2.0,1.0
NbAl6Mo,mp-1220329,123,-5.77606239875,4.6589788001967,-0.34851201750000005,125.00812089659112,0.0,3.8357769999999998,8.496333,3.0,-1.0
NaLi(AsS2)2,mp-1220728,1,-4.23093917125,2.853418472226703,-0.9267177511458335,179.25952495504325,9.999999999976694e-05,5.5376900000000004,6.7299191270613345,3.0,-1.0
Na5SrNbP4,mp-1220783,9,-4.241463131818182,2.497538955425454,-0.6035366934199131,557.6535433004558,1.3142999999999998,7.36444714231625,9.353748034555988,3.0,-1.0
Na5Si34,mp-1220793,166,-4.89241554025641,2.1970289367864018,0.005890556239316643,808.6090259585533,0.0,10.459607407418313,10.459607606445713,3.0,-1.0
NaSi34,mp-1220929,216,-5.260156968857143,2.0360398214615603,0.047709571047619186,797.5461832203778,0.0,10.409350038545536,10.409350038545536,3.0,-1.0
NaMnCuSe2,mp-1220978,156,-4.883805582,4.666346860487111,-0.570327919535201,106.54054226445308,0.4518,4.135527734942663,7.193204,3.0,-1.0
Na4Sr2SiP4,mp-1221153,9,-3.9108662686363633,2.5263981548954293,-0.6639545559956711,551.0328149074459,0.9522,7.313438601126901,9.31759581222093,3.0,-1.0
Na4H4PdPt,mp-1221165,123,-3.287621817,4.421434127956165,-0.3407873137813333,149.2854324428618,0.0,3.6386519999999996,11.275514999999999,3.0,-1.0
Na4Ca2SiAs4,mp-1221206,9,-3.7168676209090914,2.9822335027874347,-0.6867225057575762,556.684681877847,0.6332999999999998,7.165766206109782,9.450332328495806,3.0,-1.0
Na4Ca2SiP4,mp-1221207,9,-3.993219086818182,2.1162870570413266,-0.6888312602380949,508.601557652865,0.9932,6.9856400270409,9.153261531488873,3.0,-1.0
Na4Ca2SnP4,mp-1221212,9,-3.7897478522727273,2.4971207633937245,-0.6140638588744587,551.5624070428013,0.9089,7.131862298519371,9.456217137412297,3.0,-1.0
Na3Si34,mp-1221235,166,-5.066836352432434,2.125033678876293,0.02518076459459412,800.0751354837528,0.0,10.427104178897702,10.427104226641738,3.0,-1.0
Na2Zn3SiAs4,mp-1221272,8,-3.3330627410000004,4.34721774210049,-0.2860304506666665,217.71889987991062,0.0,7.1286593986092495,8.528004466076808,3.0,-1.0
Na2Zn3GeAs4,mp-1221275,8,-3.2467984430000003,4.567957762634479,-0.27999476916666666,223.39434933891548,0.0,7.178960918031803,8.58291029914172,3.0,-1.0
Na2Mn3Te4,mp-1221335,8,-5.093187041111111,4.353382032660123,-0.3501173117369092,275.08963388618,0.0,7.963102503350313,8.889298112899185,3.0,-1.0
MoCl6,mp-1221436,162,-3.8614817271428565,2.4325869656413004,-1.2373747427942858,210.69695532282964,1.1308,5.8550889999999995,6.446100558296387,0.0,1.0
MnZnSe2,mp-1221500,160,-4.89440451,4.663518733122854,-0.5410862510856687,99.08254380709215,0.3468,7.1287385388193325,7.128738593820717,3.0,-1.0
MnZnS2,mp-1221502,156,-5.3309332675,3.6085767735436565,-0.9890758139762932,84.88979432536944,0.5065,3.9158136531613694,6.392648,3.0,-1.0
MnZnSe2,mp-1221503,156,-4.8926550325,4.655106789442383,-0.539336773585668,99.26158949088041,0.2658999999999998,4.124682524350328,6.7370470000000005,3.0,-1.0
MnFeSi4,mp-1221606,123,-6.9077038900000005,4.835213497649541,-0.3522096516091959,76.6269895092516,0.0,2.72947,10.285492999999999,3.0,-1.0
MnBe4Al,mp-1221618,216,-4.815610886666667,3.498326326862495,-0.17145525994252905,55.9956309760069,0.0,4.294273624281527,4.294273624281527,3.0,-1.0
MnAl24Cr,mp-1221714,12,-4.26524982,2.9790081256250174,-0.08415082537135278,420.5634381066787,0.0,6.478721525466657,10.609060633679732,3.0,-1.0
MgMnTe2,mp-1221936,115,-4.7431213875,4.1788976056156,-0.4809742924137925,132.89527387052388,0.9141,4.552757,6.411514,3.0,-1.0
MgGeP2,mp-1221943,115,-4.5039284275,2.9351933497708336,-0.24145852053571384,89.89092439626779,0.0,3.888639,5.944572,3.0,-1.0
Mn(GaS2)2,mp-1221975,6,-5.1457403314285735,3.4162742388337817,-0.9871893395935968,156.82670765659688,0.5679000000000003,3.709567,6.778376876498532,3.0,-1.0
MgBe4Cu,mp-1222012,216,-3.466543126666666,3.3749238965631188,-0.023686763333333367,60.961474981593284,0.0,4.417638301754456,4.417638301754456,3.0,-1.0
MgAl2,mp-1222013,164,-2.9866134533333333,2.3301615984815167,0.043863783333333586,55.776045722734295,0.0,3.025555691199221,7.035691,3.0,-1.0
Mg6CdIn,mp-1222082,187,-1.7422453525,3.435154101449714,-0.08271362874999988,180.33515392665933,0.0,5.200362,6.327877913355312,3.0,-1.0
Mg6SiGe2,mp-1222090,71,-2.9267547466666666,2.6926436353713634,-0.2297491877777777,196.84617402399726,0.27129999999999965,7.838956966983424,7.838956966983424,3.0,-1.0
Mg6Sn2Ge,mp-1222093,164,-2.667861583333333,3.3894313171757253,-0.1963224872222224,223.3481325425029,0.0,4.731455919556368,11.520255,3.0,-1.0
Mg6SiSn2,mp-1222095,71,-2.7153831622222224,3.073127470515701,-0.15470115888888872,222.26174273038646,0.0,8.154395752579893,8.154395752579893,3.0,-1.0
Mg4SiGe,mp-1222108,123,-2.9578334766666665,2.5141708008223915,-0.21625646416666675,130.73743267567696,0.4927999999999999,4.524387,6.386758,3.0,-1.0
Mg4SiSn,mp-1222116,166,-2.778558605,2.8314905642316908,-0.13922425916666667,143.10387458977115,0.020100000000000232,8.047417897297803,8.047417943411725,3.0,-1.0
Mg4SiGe,mp-1222125,166,-2.9449101916666667,2.5174399068924407,-0.20333317916666674,130.5676591952564,0.3838999999999997,7.8240872109909425,7.82408738943284,3.0,-1.0
Mg4Sc,mp-1222127,166,-2.5188119440000003,2.0156414293123435,0.027905917,117.12830108181879,0.0,13.3321726293321,13.332173230005267,3.0,-1.0
Mg3In,mp-1222128,166,-1.91129307,3.2890279172593684,-0.023162099999999963,94.78119019730856,0.0,10.139250924424744,10.139251490898973,3.0,-1.0
Mn2SnS4,mp-1222131,10,-6.035625302857143,4.048046797167071,-0.8606332652586204,146.38093453443926,0.0,3.633654,6.793532762782704,3.0,-1.0
Mg2ZnSb2,mp-1222152,156,-2.784081866,4.692322656554512,-0.24042062800000005,126.5274195293821,0.0,4.489905431364117,7.247356,3.0,-1.0
Mg(InTe2)2,mp-1222182,82,-3.2950886385714284,4.907521683330713,-0.4841098914285712,258.6270978720766,1.4769,7.800210956014332,7.800210956014332,3.0,-1.0
Mg8Al4Cu2Si7,mp-1222186,6,-3.567137115714286,2.7521432439844777,-0.04522496333333338,377.7388894304072,0.0,3.9797300000000004,10.468582959726687,3.0,-1.0
Mg3Si9B36C,mp-1222229,160,-6.301709023673469,2.49210593209095,-0.1116365587755094,484.3418649363028,1.0413999999999994,8.002131086256522,8.002131209550114,3.0,-1.0
Mg(AlB14)2,mp-1222257,8,-6.390981465161293,2.628167774636953,-0.0647104556989245,240.7097696485553,0.3186,5.888986949129793,7.109218887029574,3.0,-1.0
LiMg,mp-1222270,65,-1.78641329,1.2408199178320412,-0.03181183166666668,41.815256935621534,0.0,3.0114087207513034,4.901858,3.0,-1.0
LiMgIn2,mp-1222290,216,-2.3423991175,4.702369627357576,-0.08925652333333334,92.12477688959854,0.0,5.0694846879912765,5.0694846879912765,3.0,-1.0
LiBH4,mp-1222386,216,-3.9573568066666662,0.7769409989372027,-0.3661465928300001,46.55795555508087,9.999999999976694e-05,4.038030854701582,4.038030854701582,3.0,-1.0
LiCa2CuN2,mp-1222411,136,-5.087602210833333,3.1820594692340323,-0.766889932182222,186.46158851929184,1.0412,5.303525,6.6291850000000005,3.0,-1.0
LiB3,mp-1222413,127,-5.72382752125,1.7561941701187225,-0.23705297645833226,148.91762271113438,0.09189999999999987,4.16259,5.9812400000000014,3.0,-1.0
Li4Mg,mp-1222419,166,-1.858538958,0.8356094466106552,-0.011344654666666898,103.47251219992715,0.0,12.49980271726054,12.499803176911266,3.0,-1.0
Li6Ni2N3,mp-1222476,38,-4.703829328181818,2.6103072523442434,-0.4428086806490906,127.89919447352274,0.0,3.523307,6.4807826891254425,3.0,-1.0
Li3Ga14,mp-1222489,160,-2.9650546982352943,4.7823592632602505,-0.13446024911764745,346.1609696430388,0.0,7.424849585429256,7.424849684605068,3.0,-1.0
Li8PSe6,mp-1222505,82,-3.7110246166666654,3.077976459662086,-0.9336821059533728,302.25589945716735,0.0,7.563816290301277,7.563816290301277,3.0,-1.0
Li9Ag4,mp-1222549,42,-2.3602831434615386,3.642696349102701,-0.16716546551282035,450.3310607971836,0.0,8.334546978197316,9.660010196626557,3.0,-1.0
Li7Cu2N3,mp-1222572,166,-4.208538333333333,2.7444712055901848,-0.4236808358727776,131.71858373931153,0.3209,5.240223624530255,5.240224361774027,3.0,-1.0
Li5TlIn,mp-1222587,160,-2.3437240257142853,4.476918175165664,-0.2497310195238092,131.2678083610749,0.0,7.381363750270678,7.381363820140352,3.0,-1.0
Li2MgZn,mp-1222610,216,-1.8007831375,2.444170915327996,-0.13131578916666675,70.38182316329899,0.0,4.63438208653732,4.63438208653732,3.0,-1.0
Li2MgSn,mp-1222615,216,-2.705920775,3.3264261550800143,-0.3489963654166668,78.32237536205677,0.04749999999999943,4.802495309550858,4.802495309550858,3.0,-1.0
Li2ZnCdP2,mp-1222618,160,-3.293831106666667,3.9893397581550976,-0.4893226356349209,105.58011334218351,1.0652,7.301887350471111,7.301887737227683,3.0,-1.0
Li2ZnGe3,mp-1222627,156,-3.3621846000000004,4.692499392588756,-0.2044057819444447,105.17432933560421,0.0,4.221870284510645,6.813486,3.0,-1.0
Li2MgGa,mp-1222647,216,-2.34876905,2.5741250522873567,-0.2372137285416667,69.61152509571343,0.0,4.6174129380024045,4.6174129380024045,3.0,-1.0
Li2MgCd,mp-1222648,216,-1.7677988075,3.1736014795927483,-0.18254492166666653,78.79813012436502,0.0,4.812199643015863,4.812199643015863,3.0,-1.0
Li2MgGe,mp-1222651,216,-2.8410345825,2.74452653451209,-0.3307461729166663,67.0543938343794,0.10450000000000026,4.560166987211104,4.560166987211104,3.0,-1.0
Li2AlGa,mp-1222668,216,-2.90812363,2.9934371373017723,-0.2602443635416667,61.345289432365504,0.0,4.426890086879502,4.426890086879502,3.0,-1.0
Li2Mg3Si2,mp-1222684,160,-2.9756061085714287,1.837594332032884,-0.19427554809523834,129.19279578482093,0.2094999999999998,7.804409630471738,7.804409826654223,3.0,-1.0
Li2Ga7,mp-1222769,8,-2.967936123888889,4.642998249384205,-0.1885456515740746,359.03350203371247,0.0,7.513585490010545,7.516320439577933,3.0,-1.0
Li2Fe(PS3)2,mp-1222773,149,-4.912379955454545,2.759660256578728,-0.9167109065963204,194.99567054252785,0.7126999999999999,5.856187500010992,6.565448,3.0,-1.0
Li14MgSi4,mp-1222798,122,-2.8848029423684216,1.286983594206352,-0.2518315600877196,603.3781733339242,0.1059000000000001,9.220141801893613,9.220141801893613,3.0,-1.0
KRb(Fe2S3)2,mp-1223357,38,-5.744790273333333,3.4338606396624978,-1.0107166282708338,261.2945885982349,0.0,5.177626,7.1936576269840655,3.0,-1.0
K5As4,mp-1223503,8,-3.1247455344444446,2.73327489814592,-0.4371379394444443,300.8340831084055,0.0,6.475909068941751,10.515668667060645,3.0,-1.0
KFeSeS,mp-1223522,5,-5.0003882725,3.2232915968326017,-0.863062479617188,212.2168586715992,0.0,5.484365347331357,6.8625239933491695,3.0,-1.0
K8Sb2Te,mp-1223581,119,-2.3413183318181816,1.88941369976484,-0.4972733330909094,601.0612155713234,0.0,10.35621321053101,10.35621321053101,3.0,-1.0
InGaP2,mp-1223642,160,-4.4201533025,4.333018250981698,-0.2685655636607143,94.46159694292515,0.7606000000000002,7.0352553179728305,7.035255450603625,3.0,-1.0
K2Cd3SnAs4,mp-1223689,8,-3.0746949210000003,4.726947511943699,-0.31114365610000017,292.916442217373,0.0,7.816859283039192,9.4623596437227,3.0,-1.0
K2Fe2SeS3,mp-1223698,1,-5.10687965,2.983935773146192,-0.9724190584648441,203.14305796704312,0.0,5.452182558470048,6.697028971339082,3.0,-1.0
K5Sb4,mp-1223714,8,-2.8808164477777787,3.0870995759528337,-0.4288164816666665,367.131086008226,0.0,6.8522571258078875,11.393465362428147,3.0,-1.0
K3SnSb3,mp-1223733,8,-3.1908224785714285,3.609118221275476,-0.3725692762857144,276.64847904422925,0.05480000000000018,7.0430495949900855,9.206129265573072,3.0,-1.0
Ir(N2Cl3)2,mp-1223753,107,-4.9585318827272715,2.307371452871219,-0.5793114253709093,331.7389907714081,0.3092000000000001,7.7641472329671855,7.7641472329671855,0.0,1.0
In2S3,mp-1223831,44,-4.0954935180000005,3.802274851005583,-0.9110261058749998,142.29773643697862,0.8249,7.035207879760983,7.035207879760983,3.0,-1.0
InAgS2,mp-1223835,156,-3.7930723475,4.6576177857701815,-0.6605174807291667,102.25603021545557,0.0,4.144457209390152,6.874211999999999,3.0,-1.0
K2Zn3SiAs4,mp-1223862,21,-3.3464632350000003,4.124795771159179,-0.3402815986,242.42876713377296,0.1979000000000002,5.776483,7.812246168228251,3.0,-1.0
K2Zn3GeAs4,mp-1223875,21,-3.2372553070000003,4.319078491410262,-0.3113022871000002,248.65342073764518,0.0,5.833283,7.856711305129203,3.0,-1.0
InCuGeS4,mp-1223929,82,-4.4191889,3.9271198662195546,-0.7954920824999999,160.3675747135376,1.1346000000000005,6.451921123841177,6.451921123841177,3.0,-1.0
K6InP3,mp-1224505,1,-2.894838045,2.170021822332267,-0.3294445453714285,676.9560748537081,0.7451000000000001,9.010078,10.003824787477685,3.0,-1.0
K3(FeSe)8,mp-1224651,2,-5.659300521052631,4.75907691082011,-0.4456946419868428,417.21631147265504,0.0,7.451196,8.211581344164474,3.0,-1.0
Ga2AsP,mp-1224789,160,-4.3968896425,4.5896147620799175,-0.3647408246428565,88.76538388795578,1.0292,6.878807894818113,6.878807993916388,3.0,-1.0
Ga2Se3,mp-1224809,44,-3.8831013039999998,4.675086780412111,-0.5743162164062504,133.66682890156451,0.5253999999999999,6.869483399009638,6.869483399009638,3.0,-1.0
FeCu3S8,mp-1224980,148,-4.677382538333333,4.518223792880618,-0.6314207195833331,184.86382490241317,0.0,5.696833031305113,5.6968336280629615,3.0,-1.0
FeNiP6,mp-1224986,12,-6.249071233125,4.290099242081207,-0.4078393920535711,232.53277405643712,0.0,6.7055823850476255,7.742904132148997,3.0,-1.0
FeCu6GeS8,mp-1225017,216,-4.698772891875,4.417962188671863,-0.60676103625,288.01503547404457,0.0,7.4127050389821925,7.4127050389821925,3.0,-1.0
FeCl4,mp-1225059,65,-3.6792374060000004,2.6129639936068965,-0.9821560486080004,125.61105743898528,0.28090000000000004,3.4345849999999998,6.149317655124023,1.0,1.0
FeCu2GeS4,mp-1225065,82,-5.05744539,4.2632958746473335,-0.6595199471875004,149.50319012500367,0.0,6.493754854245192,6.493754854245192,3.0,-1.0
CuCl,mp-1225654,160,-3.349962915,4.207638995500521,-0.6734340916299999,39.06982210929388,0.7732999999999999,3.7837442019346392,3.7837446101979446,3.0,-1.0
CuGePSe,mp-1225673,160,-4.5564518575,4.853175847464701,-0.14859389147879387,84.2111418807943,0.0,6.755997568148838,6.755997892850841,3.0,-1.0
CuNi3S8,mp-1225702,148,-4.7518507825,4.5054923368729165,-0.6498894787499996,182.85907204914972,0.0,5.676123464691461,5.676123842579369,3.0,-1.0
Cu3Ag3(PS4)2,mp-1225783,1,-4.261350813125,4.402121887998341,-0.548489645758929,314.1093607210568,0.9850000000000004,6.294798,7.73957708119985,3.0,-1.0
Cu3P(SeS)2,mp-1225791,31,-4.30427528625,4.819283038642756,-0.3481867161886161,305.7374643698335,0.4135,6.2860443,7.41774405,3.0,-1.0
Cu2SnS3,mp-1225832,44,-4.42854465,4.630691464259269,-0.6573855173958331,122.63813807142557,0.0014000000000002901,6.684035379938753,6.684035379938753,3.0,-1.0
Cu2SiS3,mp-1225839,9,-4.761782575,3.856751469821412,-0.754666414895833,216.458778733926,0.6467,6.407951840093213,7.0761106978212975,3.0,-1.0
CsRb,mp-1225895,65,-0.909773315,1.768636851581567,0.028194907284482706,205.0264391789472,0.0,5.174169781376042,8.097688,3.0,-1.0
CsK,mp-1225902,65,-0.96162783,1.5388624628247156,0.04127282953448275,185.60394871640807,0.0,5.0384570321486315,7.712267,3.0,-1.0
Cu2S,mp-1225993,12,-4.187045896666667,3.4788811847613936,-0.2965781610416673,151.93759268382877,1.2158000000000002,5.433259528184714,5.627894569328835,3.0,-1.0
CoCuS4,mp-1226070,14,-4.8526847575,4.636593746823563,-0.6694374354166666,179.59832219960037,0.0,5.592509,5.74248544852462,3.0,-1.0
CoNi(PS3)2,mp-1226098,5,-5.080846949,3.3034267003693816,-0.6255504090892856,186.97583055313012,0.0,5.797899742918724,6.706527289744892,2.0,1.0
CrAg(PSe3)2,mp-1226281,5,-4.66743641,4.641011583473891,-0.2386720037872017,248.87336879121943,0.7250999999999999,6.381072073174933,7.350600616702013,2.0,1.0
CrCu(PSe3)2,mp-1226296,5,-4.772583608,4.644036165367185,-0.2171541351205356,232.86326898685056,0.6841999999999997,6.253193301225383,7.163105123010621,2.0,1.0
CrCuS4,mp-1226309,14,-5.2858008575,4.227881875463447,-0.6784319229166668,191.51098516665263,0.0,5.742932,5.792825786285826,3.0,-1.0
CdAsP,mp-1226754,24,-3.7324316616666655,4.889725280736119,-0.06733365285714281,148.2726418256972,0.5657999999999999,6.111090719556862,6.111090719556862,3.0,-1.0
CdAg2SnS4,mp-1226773,6,-3.68240127875,4.659150342317154,-0.6212096426041667,204.97404900363486,0.004799999999999915,4.142784,7.245218731053812,3.0,-1.0
CdGeAsP,mp-1226788,24,-3.98744658125,4.903373004818047,-0.08286611089285678,197.05937113551224,0.6406999999999998,7.009141173056013,7.009141173056013,3.0,-1.0