pretty_formula,task_id,spacegroup.number,final_energy_per_atom,density,formation_energy_per_atom,volume,band_gap,min_abc,max_abc,Dimension,Dim
KSe3,mp-1080121,5,-3.33791016375,3.6779739734584,-0.4383768187578125,249.19847284995373,0.07040000000000002,6.466102407229644,8.354409095896846,3.0,-1.0
SnPS3,mp-1080140,12,-4.669496822,3.0160774944448567,-0.7011313585892858,270.7432356763062,1.0965999999999996,6.762189303735367,7.2017770861237445,2.0,1.0
P4Ru,mp-1080439,14,-6.616830772,4.770503144424128,-0.4313241518571431,156.61377406707018,0.8204000000000002,4.701934,7.153662236031628,3.0,-1.0
SiS4,mp-1080657,11,-4.447377355,2.0948578119648875,-0.5839226574999998,247.86198772469413,0.0,4.710985,7.6573113902299275,0.0,1.0
N2,mp-1080711,217,-6.298561016,2.4378234073124623,0.0,95.40753638832008,0.0,4.985800048279815,4.985800048279815,0.0,1.0
NaCl7,mp-1080771,200,-1.9560177075,1.9421580447028508,-0.6945665757691668,231.84161142129952,0.5193000000000001,6.143235,6.143235,3.0,-1.0
Na5As4,mp-1080834,12,-3.1961570922222213,3.087458439348149,-0.39507545851851866,223.00479133959868,0.0,5.748213619404901,9.67782653080794,3.0,-1.0
Mg3SbN,mp-1080847,221,-4.06707412,4.130870742301783,-0.6906114044760002,83.88645807431213,1.6233999999999993,4.377545,4.377545,3.0,-1.0
ZrB12,mp-1084,225,-7.03508700076923,3.608852766615364,-0.2119791638461532,101.66833997602512,0.0,5.238821205736269,5.238821205736269,3.0,-1.0
YH3,mp-1084805,194,-4.74846306375,3.9363683046343683,-0.7020427893816663,77.56022638172584,0.0,3.6783826436098246,6.619035,3.0,-1.0
K2Mg5Sn3,mp-1087476,139,-2.4277128830000003,3.1214508038791524,-0.2026215121,295.7000942911068,0.0,12.350098038780422,12.350098038780422,3.0,-1.0
KZn4P3,mp-1087504,166,-3.0946494575,4.003710089739673,-0.2959955860892856,163.26868446681644,0.5176000000000003,11.699812597450654,11.699812971362107,3.0,-1.0
O2,mp-1087546,15,-4.92996833875,1.4857460231158937,0.01798712999999985,143.05340659202378,0.0,4.500865922747312,6.050385081828757,0.0,1.0
Ca3Al7Cu2,mp-10876,166,-3.696257873333333,3.1243854882250286,-0.32673755749999955,231.8285564862649,0.0,9.182976828998589,9.182977380475462,3.0,-1.0
Ca(Al2Cu)4,mp-10877,139,-3.9823261392307687,4.2111582228594235,-0.2617851238461543,201.14768749270343,0.0,6.770030061126907,6.770030061126907,3.0,-1.0
Ca(MnAl2)4,mp-10878,139,-5.546707079230769,3.96250132940274,-0.2684738175862068,199.34109550670502,0.0,6.721315874330561,6.721315874330561,3.0,-1.0
Al3Cu2,mp-10886,164,-4.04534259,4.630631527890153,-0.15831442399999954,74.60168785585773,0.0,4.137986003027319,5.030834,3.0,-1.0
LiAl3,mp-10890,221,-3.388049515,2.2370749838816764,-0.1016369258333336,65.23585462248285,0.0,4.025583,4.025583,3.0,-1.0
Y(MnAl2)4,mp-10896,139,-5.962483539230767,4.563414925128111,-0.3411063365605659,190.85924087618446,0.0,6.689214724342686,6.689214724342686,3.0,-1.0
Sc2Al3Ru,mp-10911,194,-6.180973635,4.337630478776418,-0.6516310758333326,208.19868300848304,0.0,5.302076425395337,8.551758,3.0,-1.0
O2,mp-1091399,92,-4.94668871125,1.3026275029235828,0.0012667574999998266,163.16332141019504,1.4608,4.26251,8.980317999999997,0.0,1.0
Rb2PdC2,mp-10918,164,-5.082000946,3.646350981016564,0.03690132500000018,137.2463278713747,1.9770000000000003,5.3098410000000005,5.463165031401122,3.0,-1.0
Rb2PtC2,mp-10919,164,-5.359968086,4.759706023078119,-0.06286063499999912,136.0752775350765,1.727,5.248687,5.4714063547079,3.0,-1.0
Si7Ge,mp-1094056,215,-5.31701702,2.688564198037461,0.008011229375000541,166.28989101660073,0.4266999999999994,5.499062,5.499062,3.0,-1.0
NaPH6,mp-1094092,225,-3.2684179575,0.97104065374745,0.002376798296904959,102.62278305062729,1.2142,5.255163857663051,5.255163857663051,3.0,-1.0
MgAl2,mp-1094116,194,-3.0524328616666665,2.2948602047569024,-0.02195562499999977,226.5361516816792,0.0,5.483166823445462,8.700496000000001,3.0,-1.0
Mg,mp-1094122,166,-1.5968959166666667,1.7740551923933052,0.0033841333333333172,68.24940202553526,0.0,7.863921074143229,7.863921606855768,3.0,-1.0
LiMg2,mp-1094156,189,-1.734269251666667,1.4273699299922735,-0.031108262777777895,129.25115451913146,0.0,4.9824160000000015,5.47308109154341,3.0,-1.0
Li3Mg,mp-1094159,139,-1.8640295425,0.9274289708617032,-0.032267379999999964,80.80058888811578,0.0,5.403844196623272,5.403844196623272,3.0,-1.0
Mg5Sn,mp-1094189,189,-2.041937365,2.8362957091226826,-0.04010868083333315,140.64810004879357,0.0,5.0802,5.65407064538338,3.0,-1.0
Mg5Sn,mp-1094199,155,-2.04772484,2.870742409385328,-0.04589615583333314,138.96043105799453,0.0,6.140965900463054,6.140966252371446,3.0,-1.0
Mg5Sn,mp-1094205,38,-2.0323754883333334,2.9048966549079847,-0.03054680416666648,137.3266074683428,0.0,5.054799,8.247876017639692,3.0,-1.0
Mg2Sn,mp-1094209,63,-2.496385033333333,3.9262023467003697,-0.093007715,141.53187843566616,0.0,5.148778,8.111050577470223,3.0,-1.0
MgSn,mp-1094215,8,-2.877088725,4.810718445480955,-0.07216277250000047,148.09554786949698,0.0,6.035420567006741,7.983606461793128,3.0,-1.0
MgSn,mp-1094238,5,-2.872591058333333,4.804157073376584,-0.06766510583333367,148.2978122796174,0.0,5.582497287187877,5.85693351860212,3.0,-1.0
Mg3Sn,mp-1094244,225,-2.2597806725,3.3992469715026115,-0.05717767124999984,93.60920265718931,0.0,5.0965682919242825,5.0965682919242825,3.0,-1.0
MgSn,mp-1094250,8,-2.848960416666667,4.792267657958581,-0.044034464166667085,148.6657329429897,0.0,6.837070353042304,7.081074765179789,2.0,1.0
MgSn,mp-1094251,38,-2.8560014516666663,4.793943865422035,-0.0510754991666668,148.61375181469228,0.0,5.388013,5.637210034252759,3.0,-1.0
SrMg,mp-1094271,8,-1.6225384816666668,2.484396307541999,0.02234216999999994,224.4277627506453,0.0,7.519306602569483,7.9486932507717905,3.0,-1.0
SrMg,mp-1094274,12,-1.67331252,2.494883765002448,-0.028431868333333325,148.98957429307146,0.0,6.050419968631599,6.954585543421117,3.0,-1.0
MgTi2,mp-1094275,63,-5.7188998600000005,3.5357065692486334,0.07818816777777708,112.75225763882126,0.0,4.871784,8.089487780880196,3.0,-1.0
Sr2Mg,mp-1094285,63,-1.6264596066666668,2.5740429368288544,0.033287912222222125,257.45667510341787,0.0,6.253262,10.233724402506155,2.0,1.0
Sr2Mg,mp-1094288,71,-1.691779,2.5981372464998542,-0.03203148111111117,127.53455133714995,0.0,7.976365755531838,7.976365755531838,2.0,1.0
Sr5Mg,mp-1094292,189,-1.630513661666667,2.637828849045561,0.04410072444444454,291.08847125127136,0.0,6.6667440000000004,7.100522491789602,3.0,-1.0
Sr3Mg,mp-1094293,139,-1.6122620175,2.6324416062755507,0.05491893500000011,181.1431258051141,0.0,7.0983054188517425,7.0983054188517425,3.0,-1.0
Sr3Mg,mp-1094297,44,-1.6386678575,2.5620916990564546,0.0285130950000001,186.11695328305333,0.0,7.581432427853855,7.581432427853855,1.0,1.0
SrMg,mp-1094299,38,-1.6227249033333333,2.4883449616374973,0.022155748333333367,224.07162740036583,0.0,5.872271,6.459458285032035,3.0,-1.0
SrMg,mp-1094308,38,-1.634758425,2.49470009501941,0.010122226666666734,223.5008152686493,0.0,5.954924,9.340379851996707,3.0,-1.0
Sr3Mg,mp-1094309,194,-1.63135816125,2.6785603649063487,0.03582279124999998,356.0485007601172,0.0,6.470832,7.9709337091115,3.0,-1.0
SrMg2,mp-1094310,166,-1.717916375,2.4030456299568845,-0.08790259055555556,188.27377576428023,0.0,6.510997872821107,6.510998467191495,3.0,-1.0
Sr2Mg,mp-1094317,12,-1.6488400483333334,2.628313016695664,0.010907470555555555,252.1406437816724,0.0,7.55109862032625,8.715196660806054,2.0,1.0
SrMg3,mp-1094320,139,-1.6317019775,2.3571876364882955,-0.009121626666666494,113.09012270816507,0.0,5.365702315470268,5.365702315470268,3.0,-1.0
SrMg3,mp-1094338,194,-1.63822177,2.2321376552521164,-0.015641419166666504,238.85143322535976,0.0,5.327907,7.194825920491267,3.0,-1.0
MgTi5,mp-1094340,38,-6.752628781666666,4.0702755429616735,0.0936612405555562,107.55648233089322,0.0,4.8205279999999995,7.795883809009278,3.0,-1.0
MgTi2,mp-1094351,12,-5.735355883333334,3.5389491167506164,0.061732144444443776,112.64894884875721,0.0,5.614286225852936,7.4359049005049815,3.0,-1.0
Sr2Mg,mp-1094352,12,-1.6589422516666668,2.572453687926017,0.0008052672222221465,257.6157305376738,0.0,7.004259209886796,10.181310036349595,2.0,1.0
Sr5Mg,mp-1094360,155,-1.6163675933333332,2.5814081327378,0.05824679277777781,297.4506655314565,0.0,7.959489587376883,7.959489960365612,3.0,-1.0
Sr5Mg,mp-1094372,8,-1.6453911550000002,2.6200955103921517,0.029223231111110987,293.0586171556203,0.0,7.818040367458843,9.218795485374976,3.0,-1.0
Y5Mg,mp-1094375,38,-5.633307688333333,4.140460973261851,0.02213158111111113,188.02679047395915,0.0,5.632969999999999,9.468532468047677,3.0,-1.0
MgTi,mp-1094383,59,-4.68312213875,3.0666893631752745,0.06476389458333287,156.31765897615043,0.0,2.958767,10.797553,3.0,-1.0
MgTi,mp-1094385,38,-4.672679838333333,3.0578961940084217,0.07520619499999981,117.57537003657208,0.0,4.8014779999999995,8.405981349514521,3.0,-1.0
MgTi5,mp-1094387,8,-6.762066681666667,4.053310087155558,0.08422334055555562,108.00666864983,0.0,5.666636624058138,7.007174018243017,3.0,-1.0
Y5Mg,mp-1094392,189,-5.6202010766666675,4.169379378241112,0.03523819277777799,186.72265516253768,0.0,5.597487,6.20635516781025,3.0,-1.0
Y3Mg,mp-1094397,194,-5.25166092625,4.008909312524668,-0.0017375787500002462,241.0901698508193,0.0,5.620891,7.0375557604958265,3.0,-1.0
YMg2,mp-1094403,63,-3.2492986766666667,2.8911132764556657,-0.026954938888888932,157.9671354016607,0.0,5.46681,8.780427430460376,3.0,-1.0
YMg2,mp-1094404,15,-3.2250380016666664,2.8724490078392497,-0.002694263888888789,158.99355607602467,0.0,5.7356487747185145,6.529880290328835,3.0,-1.0
YMg5,mp-1094405,155,-2.395372543333333,2.328513145743208,0.01593935055555562,150.06513829721803,0.0,6.386038207313279,6.386038465365285,3.0,-1.0
Y2Mg,mp-1094414,15,-4.831949495,3.815175018234745,0.012457930555555665,175.9409069089378,0.0,6.0156607161066695,6.672587993460484,3.0,-1.0
Y5Mg,mp-1094415,8,-5.658814053333334,4.171212241957752,-0.003374783888889491,186.64060774805242,0.0,6.653980505800496,8.358174377760372,3.0,-1.0
YMg2,mp-1094418,166,-3.309166943333333,2.9319296360306724,-0.08682320555555556,155.76802280347545,0.0,6.035640047601662,6.035640167541634,3.0,-1.0
Y2Mg,mp-1094419,12,-4.863989338333334,3.736921650851985,-0.019581912777778026,179.62521439846256,0.0,6.686755849806392,8.090463207546588,3.0,-1.0
Mg2Zn,mp-1094421,155,-1.4853127199999998,3.1294944724404328,0.0014551833333333875,120.99909777889481,0.0,6.046658105115338,6.0466584384170385,3.0,-1.0
Mg2Zn,mp-1094422,63,-1.5411801933333331,3.194693998965241,-0.05441229000000014,118.52966443483488,0.0,4.890197,7.970479907309973,2.0,1.0
Y2Mg,mp-1094424,63,-4.8352021333333335,3.71676893287449,0.009205292222222402,180.59916148874336,0.0,5.574947,8.911379834361961,3.0,-1.0
Mg5Zn,mp-1094425,155,-1.5417381533333332,2.398589744440542,0.0017858233333332878,129.41404864890978,0.0,6.199253270472503,6.199254206493229,3.0,-1.0
Mg3Zn,mp-1094427,44,-1.51419257,2.8076801609738333,0.0009533699999999533,81.80860806051017,0.0,5.855574058294628,5.855574058294628,3.0,-1.0
Mg3Zn,mp-1094433,139,-1.5269714525,2.809949037695576,-0.011825512499999968,81.74255218405952,0.0,5.184292780726123,5.184292780726123,3.0,-1.0
Mg5Zn,mp-1094434,38,-1.5731968183333331,2.4271256457495007,-0.029672841666666724,127.8925178098676,0.0,5.026602,8.21946164066589,3.0,-1.0
MgZn,mp-1094435,8,-1.4561924416666667,4.087282180140631,-0.02618061166666704,109.34425022925137,0.0,5.779375866961847,6.7403453789007,3.0,-1.0
Mg2Zn,mp-1094437,63,-1.517917045,3.220691945912567,-0.031149141666666637,117.5728737887838,0.0,4.940036,5.324428501191091,3.0,-1.0
Mg2Zn,mp-1094440,63,-1.531436145,3.2081159491335134,-0.04466824166666683,118.03376613354807,0.0,4.895466000000001,7.889594864187263,3.0,-1.0
YMg5,mp-1094442,189,-2.424625123333333,2.380802902697866,-0.013313229444444316,146.76924614250132,0.0,5.206914,5.705083415671764,3.0,-1.0
MgZn,mp-1094445,5,-1.4667924033333335,4.033405725104459,-0.036780573333333656,110.80482250549757,0.0,5.315171091059347,5.697844727958546,3.0,-1.0
YMg,mp-1094447,38,-4.056313106666667,3.3729008715470123,-0.022937525000000274,167.20714276589646,0.0,5.4930400000000015,8.940382479722945,3.0,-1.0
Mg2Zn,mp-1094448,189,-1.491843748333333,3.18526819575902,-0.0050758450000000606,118.88041583860985,0.0,4.984275,5.247939690364307,3.0,-1.0
Y3Mg,mp-1094449,44,-5.2571470575,3.9818803532952782,-0.007223710000000771,121.36334361142364,0.0,6.630934199889031,6.630934199889031,3.0,-1.0
Mg5Zn,mp-1094450,187,-1.5199543416666668,2.411182631863574,0.023569634999999717,128.7381576881596,0.0,3.110901860843733,15.360453,3.0,-1.0
Mg3Zn,mp-1094451,194,-1.564070965,2.8386084352074827,-0.04892502499999996,161.83451229094194,0.0,4.979149,6.126221236838415,3.0,-1.0
YMg,mp-1094452,12,-4.05816865,3.331032921602477,-0.0247930683333335,112.87251949317556,0.0,5.758569715229036,6.4567284811539825,3.0,-1.0
YMg2,mp-1094454,12,-3.2691623983333336,2.910189613703364,-0.04681866055555576,156.93165842284625,0.0,6.751629463582255,7.348445704540312,3.0,-1.0
Mg2Zn,mp-1094455,8,-1.4891198233333334,3.185975795314118,-0.002351920000000026,118.85401270978477,0.0,5.714672808094091,7.0698482320432445,3.0,-1.0
Mg2Zn,mp-1094458,12,-1.4975417583333333,3.1642557697439377,-0.010773855000000054,119.66984821204063,0.0,5.999640644839323,7.0007659511839835,2.0,1.0
Mg5Zn,mp-1094459,8,-1.5389497566666668,2.4285778029991247,0.004574219999999703,127.8160450500981,0.0,5.956214913031262,7.260852123997638,3.0,-1.0
Mg3Zn,mp-1094464,225,-1.5052353625,2.8367784674171275,0.009910577500000128,80.96945478351442,0.0,4.856000665469684,4.856000665469684,3.0,-1.0
Mg2Zn,mp-1094465,38,-1.5005380966666666,3.178579247144115,-0.013770193333333404,119.1305857828003,0.0,4.855972,8.076137786939809,3.0,-1.0
Mg3Zr,mp-1094466,194,-3.294930355,3.0973965911033203,0.04220484000000013,175.99245936767136,0.0,5.036908,6.351842404585461,3.0,-1.0
Mg2Zn,mp-1094468,15,-1.5102296666666666,3.211252999383168,-0.023461763333333312,117.91845978565586,0.0,5.2617843994942435,6.008923647850753,3.0,-1.0
Mg2Zn,mp-1094469,63,-1.4968052083333332,3.1680612961577164,-0.010037304999999995,119.52609885692043,0.0,4.955293,7.920251128620166,3.0,-1.0
Mg5Zn,mp-1094473,189,-1.54341323,2.441128866703584,0.0001107466666665502,127.158878873516,0.0,5.134843,5.3474217430019495,3.0,-1.0
MgZn,mp-1094474,38,-1.4501618433333334,4.022992536024882,-0.02015001333333366,111.09163177927736,0.0,4.800304,7.739603707240378,3.0,-1.0
MgZn,mp-1094475,38,-1.506659228333333,4.122417088114261,-0.07664739833333349,108.41232119656635,0.0,4.719901999999999,7.7052302784086875,3.0,-1.0
MgZr,mp-1094479,166,-5.01734608,4.263040714207669,0.056644259999999676,45.00084110993224,0.0,5.8048367902543125,5.804837064542036,3.0,-1.0
YMg5,mp-1094482,38,-2.423891568333333,2.332647404097543,-0.012579674444444263,149.79917094586864,0.0,5.366906,8.706121382824499,3.0,-1.0
MgZn,mp-1094488,38,-1.4513396383333337,4.024820676179568,-0.021327808333333625,111.04117212175586,0.0,4.776632,7.78260971676757,3.0,-1.0
Mg2Zn,mp-1094489,12,-1.48802458,3.167814477147044,-0.0012566766666666964,119.53541168558584,0.0,5.793714543134655,7.179889771544478,3.0,-1.0
MgZn,mp-1094490,38,-1.46874308,4.087066397899247,-0.03873125000000025,109.35002320798478,0.0,4.8223720000000005,5.11189578696984,3.0,-1.0
SrMg2,mp-1094491,12,-1.6352996933333337,2.3421251224667463,-0.00528590888888895,193.1709240236203,0.0,6.809765336503454,8.376365873882179,3.0,-1.0
Y3Mg,mp-1094496,139,-5.2153965475,4.017726616270206,0.034526799999999185,120.28053665462521,0.0,6.0213335660015535,6.0213335660015535,3.0,-1.0
Mg2Zn,mp-1094503,12,-1.518846315,3.2278825554515387,-0.03207841166666666,117.3109619585773,0.0,5.912035535353285,6.875183564907196,3.0,-1.0
MgZn,mp-1094505,12,-1.480135205,4.034681438181982,-0.05012337500000008,73.84652498764785,0.0,4.96999019502232,5.409176489637308,3.0,-1.0
MgTi2,mp-1094511,12,-5.714700056666668,3.5556096252238043,0.0823879711111104,112.12111003499196,0.0,5.9672290811493065,6.8006457049524345,3.0,-1.0
Mg3Sn,mp-1094514,139,-2.3005261025,3.475124714084876,-0.09792310125000014,91.56528896575688,0.0,5.637381802735558,5.637381802735558,3.0,-1.0
MgSn,mp-1094524,38,-2.8761254616666663,4.789396953233578,-0.07119950916666677,148.75484132681598,0.0,5.2107410000000005,7.915763585365218,3.0,-1.0
Sr5Mg,mp-1094530,38,-1.603811555,2.6198377310312884,0.07080283111111108,293.08745270605567,0.0,6.648194,10.61800869364967,3.0,-1.0
Y2Mg,mp-1094531,12,-4.876902168333333,3.7980955044431526,-0.03249474277777745,176.73208900073647,0.0,6.579251211319567,8.06835919419184,3.0,-1.0
Mg2Sn,mp-1094543,12,-2.498091833333333,3.8977214886573206,-0.094714515,142.5660593924181,0.0,6.041848907383237,7.791450374662857,3.0,-1.0
Mg5Sb,mp-1094555,38,-2.101790845,2.8731184261247504,-0.08005726333333325,140.60828232641742,0.0,5.319515,8.278844705090318,3.0,-1.0
LiMg5,mp-1094558,189,-1.6743600116666668,1.6034865624580017,-0.02263949222222254,133.0368565127423,0.0,5.133449,5.470361601717477,3.0,-1.0
LiMg2,mp-1094559,164,-1.7085614666666666,1.3929807055052352,-0.005400477777777783,132.44204363224028,0.0,3.1996610015818865,14.937826000000001,3.0,-1.0
Li2Mg,mp-1094562,38,-1.82377459,1.0407103868074514,-0.017732662222222178,121.86100213869831,0.0,5.0321419999999994,8.075146769436454,3.0,-1.0
LiMg3,mp-1094567,139,-1.698838965,1.5123011019296215,-0.02139821083333326,87.6836018523119,0.0,5.322688458145282,5.322688458145282,3.0,-1.0
LiMg,mp-1094568,12,-1.7936537000000001,1.238128792846923,-0.039052241666666536,83.812288309167,0.0,5.355206696725814,5.90261615588588,3.0,-1.0
Li2Mg,mp-1094569,164,-1.8072212016666669,0.9942826767629374,-0.0011792738888889431,127.55126246934105,0.0,3.1642742870574603,14.709771,3.0,-1.0
LiMg2,mp-1094570,15,-1.7300652783333332,1.4053465169966504,-0.02690428944444445,131.27667030595623,0.0,5.387327594869744,5.9024808968012765,3.0,-1.0
LiMg,mp-1094573,38,-1.7941557433333333,1.2312899849517522,-0.039554285000000064,126.41669543917398,0.0,5.065057,8.159037389172452,3.0,-1.0
LiMg2,mp-1094574,63,-1.740820831666667,1.4056718467474187,-0.0376598427777779,131.24628753452123,0.0,5.135625,8.399800050559776,3.0,-1.0
LiMg,mp-1094575,38,-1.7900658133333334,1.2153053757547347,-0.035464355000000225,128.07942277741085,0.0,5.036497,8.107713547918737,3.0,-1.0
Li2Mg,mp-1094576,189,-1.8349185783333333,1.032025443712089,-0.02887665055555555,122.88651548777972,0.0,5.0233690000000015,5.314828809954747,3.0,-1.0
LiMg,mp-1094578,166,-1.775263175,1.2328644482683733,-0.02066171666666672,42.085083845072546,0.0,5.2794408290675054,5.279440949692496,3.0,-1.0
LiMg2,mp-1094579,63,-1.7496216133333335,1.4152304783337015,-0.04646062444444462,130.35983481263884,0.0,5.069189,8.375243847727658,3.0,-1.0
LiMg,mp-1094580,187,-1.7616290266666663,1.1941591961389764,-0.007027568333333474,130.34745411518446,0.0,3.164569989560825,15.02943,3.0,-1.0
LiMg2,mp-1094581,187,-1.725825375,1.4099673161063138,-0.022664386111111167,130.8464453536896,0.0,3.1713480586810396,15.022544,3.0,-1.0
LiMg2,mp-1094582,194,-1.7176154733333335,1.4091543541454554,-0.0144544844444446,130.92193260068504,0.0,3.192919279249164,14.828794,3.0,-1.0
Li2Mg,mp-1094586,63,-1.83791579,1.0545144605154653,-0.03187386222222225,120.2657862183469,0.0,4.9974739999999995,5.274732838869946,3.0,-1.0
LiMg2,mp-1094587,38,-1.749610055,1.4084265739217352,-0.04644906611111122,130.98958425904073,0.0,5.014203,8.437526392645715,3.0,-1.0
LiMg5,mp-1094588,187,-1.6469635366666668,1.5978662795666436,0.0047569827777775115,133.50479602566662,0.0,3.1696554654391065,15.344123000000002,3.0,-1.0
LiMg,mp-1094589,5,-1.7870208116666666,1.2382553278196236,-0.03241935333333353,125.7055855346379,0.0,5.315808830648822,5.849455380311059,3.0,-1.0
Li5Mg,mp-1094590,187,-1.8620582183333327,0.7938122695188502,-0.004575821111110952,123.44028189367651,0.0,3.124586127903982,14.599611,3.0,-1.0
Li3Mg,mp-1094591,44,-1.865596645,0.9193019973469982,-0.033834482500000096,81.51489631675331,0.0,5.841272013273993,5.841272013273993,3.0,-1.0
LiMg,mp-1094592,156,-1.7701978683333337,1.2141124942411203,-0.015596410000000262,128.20526249690158,0.0,3.1511352839878195,14.908744,3.0,-1.0