pretty_formula,task_id,spacegroup.number,final_energy_per_atom,density,formation_energy_per_atom,volume,band_gap,min_abc,max_abc,Dimension,Dim
Cr3(CoO6)2,mp-772720,60,-6.3858820176470585,3.0416222702445177,-1.4248959220588224,1017.2965444001248,0.7207,8.949389,12.582167,3.0,-1.0
Rb2Ge2O5,mp-772864,15,-5.682761693611113,3.56077244102778,-2.0788226715277776,739.0828949341739,2.7725,7.042908371876564,15.260201796406298,3.0,-1.0
Li2Cr4O13,mp-773197,15,-6.424744202894736,2.294216704456642,-1.7104449025219304,622.257694338458,1.4095,7.645249270743826,14.058010355820947,2.0,1.0
K2TeO4,mp-773785,14,-4.9965408107142855,3.0922412169914995,-1.8041464251428567,579.5198726158435,2.6294,6.388476,12.132193441687699,3.0,-1.0
BaCa2I6,mp-773900,15,-3.296362068333333,3.8662490278186232,-1.6214458150000002,840.8759948427369,3.7135,8.732522842548137,13.135919371011875,3.0,-1.0
Cr5O12,mp-773920,60,-7.0911068025000015,2.942132664442842,-1.8470936863235297,1020.3745477293072,1.8226,8.984815,12.535548,3.0,-1.0
Bi3(TeCl5)2,mp-773980,2,-3.1986486503333333,3.933552332829228,-1.165634346506667,1044.1151744698318,1.1818,7.013980999999999,15.215483617359714,2.0,1.0
Li5SbS,mp-775372,14,-3.3839277621428567,2.2317171451459314,-0.9344126992559524,1122.2261957596854,1.574,8.146133,16.472635655615164,3.0,-1.0
Li3SbS3,mp-775804,14,-4.082974714642857,2.628573519318804,-1.1865833659821428,603.3693854564401,2.2977000000000007,4.154212,12.730483266894545,3.0,-1.0
Li3SbS3,mp-775806,14,-4.105446141964285,2.5794274377822806,-1.2090547933035711,1229.7308819371615,2.2746,8.516883,13.731674060008595,3.0,-1.0
BaLi2NiO3,mp-775974,14,-5.057017739642856,4.334866176595222,-1.9013106468452377,790.3432385743413,2.3059000000000003,5.437543,13.755324,3.0,-1.0
K2O,mp-776016,61,-3.3880191145833334,2.2481824881790184,-1.2325313270000002,556.5958768556993,1.3316,6.478791999999999,12.893467999999999,3.0,-1.0
Na(BH)5,mp-776332,14,-4.943823355681818,1.136497593144186,-0.3156147758878783,959.4703504719156,4.7322,6.743436999999999,13.342207,1.0,1.0
Li2SbS2,mp-776356,19,-4.0422188727499995,3.1886146046020563,-1.0636535313333342,832.2842401437613,1.5415000000000003,7.618086999999999,12.572771000000001,3.0,-1.0
Mg(NO3)2,mp-776410,29,-6.2074319352777785,2.2850160136054183,-1.431963353306667,862.2522313666176,3.5438,7.465522,15.327503,3.0,-1.0
Li9Y(NiO4)2,mp-776467,62,-5.2551850515,3.2475465747865377,-2.0129663503333326,811.4805859675299,2.6839999999999997,6.5058110000000005,16.172572,3.0,-1.0
Cr3(FeO6)2,mp-776667,14,-6.727710323235294,3.0674370433222804,-1.7075848058823533,995.36102427749,2.0265,8.768396000000001,15.113395671522035,3.0,-1.0
BaYBr5,mp-776795,14,-4.353443439285714,3.8393855542787154,-1.9862899188095235,1082.5555691361112,3.8401,9.484899,12.187492,3.0,-1.0
Na2SnO2,mp-778057,60,-4.76493894675,3.81422461103804,-1.7388975015833332,685.0329037851616,2.1033000000000004,5.851947,17.015319,2.0,1.0
Rb2MgO2,mp-778256,14,-4.28264189725,3.3331405719030065,-1.87210607075,905.6681361753847,1.8689,6.4893480000000014,16.209198670399285,3.0,-1.0
K8Al2O7,mp-778430,14,-4.773786924705882,2.537751505121584,-2.0623750707500004,1253.038737853506,2.2214,9.557066,12.241389999999999,3.0,-1.0
Li5NiO4,mp-778478,61,-4.740806137375,2.7426523733897983,-1.7264648485416665,762.3633515130211,1.7456,5.1579510000000015,15.687488,3.0,-1.0
Cs3NO4,mp-778950,61,-4.81647781671875,4.410733401553482,-1.363810169365388,1435.7943690112086,2.6236999999999995,10.88635,11.932136999999999,3.0,-1.0
Zn(NO3)2,mp-778973,29,-5.825745047638889,2.9785887089369343,-1.08811384789,844.7955675243293,3.3390000000000004,7.454833,15.153294,3.0,-1.0
Rb4PbO4,mp-779104,14,-4.268458721388889,4.577571528225295,-1.5331870286111107,889.576218863163,1.6016,6.9988,19.663109,3.0,-1.0
Mg4N6O19,mp-779162,143,-6.1123442431034505,1.7918658912420309,-1.4646339937251731,1349.0539554758434,3.2343,7.086023,14.826821558855322,0.0,1.0
P2H9(CBr)3,mp-779221,14,-4.612057873823528,2.28286789810102,-0.34292120351310856,1008.9302991481584,2.5267000000000004,7.3021449999999986,17.161433,0.0,1.0
BaNa6O4,mp-779453,217,-4.106478141136363,2.947442642502152,-1.671064867954545,764.5405075889553,1.6614,9.977172104007577,9.977172104007577,3.0,-1.0
Sb2(SeO4)3,mp-779462,14,-5.368144817352942,3.797226199567932,-1.2685140798253671,1176.1580204282855,1.9977,9.272701,15.766933103824408,3.0,-1.0
Na3CuO2,mp-779502,92,-4.11059256,3.0483966149658217,-1.3548435170833326,716.9201060885663,1.6071000000000002,7.867531,11.582274,3.0,-1.0
Na4Bi2C4SO16,mp-779515,70,-6.461989963333332,3.4975558973888368,-1.9675663465354944,803.3301593014622,2.0267,10.198106923326506,10.611648215673616,3.0,-1.0
ZnTe2O5,mp-779552,62,-5.1759404025,5.4605749694373245,-1.57910630078125,974.5814930297072,2.6398,8.653339,12.359378,3.0,-1.0
ZnTe2O5,mp-779698,133,-5.1663896446875,5.301934672870048,-1.5695555429687502,1003.7421497753172,3.0118,8.810335,12.931155,3.0,-1.0
Cs4GeO4,mp-779716,14,-4.654259331666667,4.884474934450735,-1.8556705296360159,908.7329695285306,2.9231,7.241246,11.711627778581125,3.0,-1.0
Li5FeO4,mp-779889,61,-5.254279617125,2.497500164346168,-2.0278517082916663,822.0454392368943,3.0739,5.194717,15.845715,3.0,-1.0
Na6NiO4,mp-779898,186,-3.9555227825,2.8863648425070974,-1.3658217047727272,599.7657016549107,1.2905999999999995,7.652260197417037,11.816588585616286,3.0,-1.0
Li2Cr3(NiO6)2,mp-780190,60,-6.112184089473684,3.0590285671338338,-1.6428026616666664,1040.6090223077356,2.362,9.093283999999999,12.571561,3.0,-1.0
NaBi5O8,mp-780238,7,-5.5219155523214285,7.355292773208839,-1.6126193011309518,1079.9390822132978,2.286,7.9104899999999985,16.426526000000006,2.0,1.0
Al2(SeO4)3,mp-780398,60,-5.800195734117647,3.4360506403993445,-1.7456738683547797,933.3597443761736,2.6467,8.709609,12.2026,3.0,-1.0
Na4Bi2O5,mp-780428,52,-4.7562872752272725,4.7427005092706045,-1.6411050179166669,826.1791092139482,2.5478,5.658842,14.799731,3.0,-1.0
Rb(BH)5,mp-780534,14,-4.956412012159091,1.6387254348467897,-0.35857780910757564,1171.8945649381747,4.0007,7.281787,15.29525703194876,2.0,1.0
Ti(SO4)2,mp-780570,61,-6.780756253863637,2.811799436383253,-2.3437748447348485,1133.840255098371,2.2047000000000003,9.125256,13.532001999999999,3.0,-1.0
Na4Bi2O5,mp-780721,14,-4.780328368409091,5.032046513419083,-1.6651461110984849,778.6732637642848,2.5551000000000004,6.185663,16.204622413568853,3.0,-1.0
Zn2As2O7,mp-781624,15,-5.522653148939394,4.599196165809472,-1.7447093024621207,850.6124958806122,1.861,9.758562567184011,11.159250538641114,3.0,-1.0
Rb3Cu5O4,mp-8198,14,-4.456530358125,4.098521933363712,-1.0881722379166658,1034.1693638212278,1.5323999999999998,7.476453,14.48867153506342,3.0,-1.0
BaAl4S7,mp-8258,31,-5.120539692916666,2.761328663009742,-1.6861894247395834,564.9227857082748,3.1887000000000003,5.9584980000000005,15.043619,3.0,-1.0
NaGeSbO5,mp-8341,33,-5.97029534125,4.229168027750601,-2.0584192593229176,934.1267030093454,2.3243,6.501002,13.202931,3.0,-1.0
Na14Co2O9,mp-849362,147,-4.1663429236,2.689747476201505,-1.4829526899166672,720.7265014961463,0.8922999999999999,6.6596570064100895,11.505786590701785,3.0,-1.0
Rb3InO3,mp-849527,14,-4.281516617857143,4.258981990055187,-1.64861913875,653.799922056402,1.8989,7.178453,11.57078310942358,3.0,-1.0
B12H21C4S2I,mp-849805,14,-5.1585411144375,1.4881142467214188,-0.31943395724425017,1740.6469995660761,4.2777,9.832462,14.101529999999999,0.0,1.0
SrCaI4,mp-850279,14,-3.2178830916666663,3.8231170002478563,-1.5860278261111107,1103.7766705052068,3.3476000000000004,8.181742999999999,17.03590386083509,3.0,-1.0
SrCaI4,mp-850529,14,-3.22253720875,3.8201018738477295,-1.5906819431944446,1104.6478583135386,3.3835,8.104517999999999,16.326428,3.0,-1.0
W(SO4)2,mp-850781,61,-6.351337586136364,4.1715324842804336,-1.8496621357954541,1197.2672482060675,2.6263,9.239758,13.794382999999998,3.0,-1.0
NaSbO2,mp-850814,61,-5.347668838125,3.789319750519781,-1.863922739583333,619.6318570684622,2.7684999999999995,5.508223,16.617082999999994,2.0,1.0
Li2Co(SO4)2,mp-850927,61,-5.950089189326923,2.9841037990214216,-2.1067455730128213,1179.4331721629962,2.3769,9.186428,13.801347,3.0,-1.0
ScAg(PS3)2,mp-8616,163,-5.13528039,2.7664095611785013,-1.0523267867559525,488.798052527511,2.0349,6.2220913620130185,14.578942999999999,2.0,1.0
Rb3GePSe7,mp-861898,2,-3.7990739275,3.6709605270659353,-0.6782992377064735,825.7434008695294,1.5887,7.425431,12.198169206907814,3.0,-1.0
AlInSe3,mp-862787,169,-4.090945037,4.533450711007834,-0.6939462384062504,832.2298500440576,1.6052999999999995,7.108547868345897,19.017388,3.0,-1.0
LiCoPO4,mp-863390,181,-6.587792283333332,2.710607015709502,-2.367908226462584,1182.4229607889188,2.7351,10.858273891528523,11.580322,3.0,-1.0
CoTe2O5,mp-863436,133,-5.521308425625,5.293914080200504,-1.4276525507812492,989.012781407874,2.3711,8.727002,12.985891,3.0,-1.0
NbC2NCl8,mp-864879,36,-4.856762919583333,2.1824605444098464,-0.9785840494549998,630.8389429477273,2.3156,6.162043238310244,16.756974,0.0,1.0
BaBSbS4,mp-866301,62,-5.1058632089285725,3.565132937655209,-1.3031027363095238,741.803377592047,2.6604000000000005,6.263939,11.898017,3.0,-1.0
Ca5Al2(SiN4)2,mp-866314,60,-6.804449876323528,3.1404608912260383,-1.3932994880317646,893.7627513517447,2.7947999999999995,6.177766,15.564673,3.0,-1.0
Ca2SnS4,mp-866474,62,-4.862196369285714,3.105748323805352,-1.7318062146428572,699.613035012474,2.0322,7.337764,10.977152,3.0,-1.0
Ca2SnS4,mp-866503,62,-4.900935855714286,2.8427168504350906,-1.7705457010714285,764.3469698608238,2.3042,6.586336,13.990801000000001,3.0,-1.0
KPPdS4,mp-866637,136,-4.678495348214286,2.4552614099138137,-1.0219916216530618,824.4380049058307,1.5304000000000002,8.7613,10.740411,3.0,-1.0
KSc(BH4)4,mp-866638,62,-4.298180855454547,1.0015018535135312,-0.389261686481212,951.2243367195404,4.8549,8.305273,12.353133,3.0,-1.0
KGeBiS4,mp-866646,14,-4.361796325357143,3.984448888149544,-1.0024505282857141,748.4565041239897,1.841,6.651271,17.385483747570678,3.0,-1.0
KSiBiS4,mp-866651,14,-4.6431914774999985,3.5909783381200024,-1.1692333711428573,748.0548422690146,2.0504999999999995,6.558433,17.559555019361202,3.0,-1.0
ReTeSeCl4,mp-866695,82,-4.381127963214285,4.118123942574491,-0.9383931775548214,862.2269033787384,2.3117,10.496717625287728,10.496717625287728,0.0,1.0
ReTeSCl4,mp-866713,82,-4.5136207385714275,3.8400042700893975,-1.0741604687378572,843.5598267049858,2.3311,10.402134384939421,10.402134384939421,0.0,1.0
Ca2SnS4,mp-866883,61,-4.811302293928573,3.173223529753001,-1.6809121392857151,684.7365117614313,1.3379,6.883137,13.551924,3.0,-1.0
H6C2SBr2,mp-867563,14,-4.389224009090909,2.208416939102777,-0.3311490713495457,667.5250880671646,2.4008,7.552474,11.612652647778456,0.0,1.0
LiNi4(PO4)3,mp-867586,6,-6.259984990625,4.177790218303784,-2.081919350827381,837.2727791490435,2.2887,6.39909,14.530409919243505,3.0,-1.0
BaCaI4,mp-867676,52,-3.298435694583333,3.9220157575476873,-1.62833216625,1160.1251234809838,3.7585,9.091026,11.477953,3.0,-1.0
Cr3(CoO6)2,mp-867856,14,-6.385888178235295,3.1511034483499167,-1.424902082647058,981.951838652112,1.0891,8.754452,15.131543449900178,3.0,-1.0
RbBaTaS4,mp-867884,62,-5.94762851,4.148769481309542,-1.854879652857144,851.7332550345058,2.4774000000000003,7.115353,12.643346000000001,3.0,-1.0
Sb16Cl4O21,mp-867961,1,-5.54851634804878,4.998249356259566,-1.6402627238851215,805.9622620949315,1.4108999999999998,8.334284,10.470969619853932,2.0,1.0
Rb4P2PbSe8,mp-867964,72,-3.822983852333333,4.207010464658761,-0.7277407253928573,981.0052989175767,1.7612,12.037488177182606,12.037488177182606,3.0,-1.0
Cs2VAgS4,mp-8684,70,-4.7643871325,3.4939694768436604,-1.3144838468785918,525.5225312412632,1.3958,7.776336030905043,14.357577795680301,3.0,-1.0
Na3AsSe3,mp-8686,198,-3.5294454585714283,3.46093389706438,-0.8021869602901782,730.7680374125406,2.0371,9.00727,9.00727,3.0,-1.0
BaCdS2,mp-8885,62,-4.120276398125,4.634532205928844,-1.6733163171875003,449.8318730756585,1.7377999999999998,4.225942,14.263827,3.0,-1.0
Sr(BS2)2,mp-8947,14,-5.460881045714286,2.9200431641289577,-1.326563293928572,540.2404378680152,2.9915,6.14649,14.261574,3.0,-1.0
K2Sn2S5,mp-8965,15,-4.189821380555555,3.14860559279612,-1.122611276291667,502.0124603909294,1.8223,6.909944734449401,11.713802417502224,3.0,-1.0
K2TaCuSe4,mp-8972,70,-4.9731724675,4.3506366194173935,-0.9529939544218752,487.42512878349197,2.0545,7.488715136681661,14.036452399672966,3.0,-1.0
RbBS3,mp-9047,14,-4.7300625054999985,2.5580987893526204,-1.1142834167083335,499.7621914012774,2.3467,5.877875,12.103425,3.0,-1.0
In2(SO4)3,mp-9209,14,-5.985209307647059,3.6192518851528255,-2.051660914375,950.3252901989786,3.7114,8.672768,14.887108062507535,3.0,-1.0
Cd2TeCl2O3,mp-950214,56,-4.04184027390625,4.060727690473788,-1.5126179226899998,1541.9020980858884,3.3714,8.370792999999999,16.058112,2.0,1.0
Li6PS5I,mp-950995,9,-4.074391083076923,2.221001687850509,-1.3239460822458795,538.084875027998,2.2742,7.290618021364512,12.397911844316125,3.0,-1.0
S,mp-96,13,-4.136449866875,1.4777529035873205,0.0,1152.997853241063,2.7405,9.248054,13.642060999999998,0.0,1.0
Na3AlTe3,mp-9680,14,-3.2498381160714285,3.51758022298459,-0.8042045060714287,904.0129103374484,2.2355,7.835413000000001,16.320014013082773,3.0,-1.0
Na3AlSe3,mp-9682,14,-3.6852197817857135,3.012756060561562,-1.0884673656473214,733.784763151583,2.7204,7.2983910000000005,15.272236981292458,3.0,-1.0
Pb3I2(Cl2O3)2,mp-974035,15,-4.226412502333334,5.798036446094887,-1.2480549583693328,637.6437609085988,3.2935,8.71964745812908,12.195789288874133,3.0,-1.0
Tl2Cr3O12,mp-9754,60,-6.07313798,4.723885107263932,-1.4501124508823529,1064.0471483757342,1.7292999999999998,8.981574,13.172703,3.0,-1.0
K2NbCuS4,mp-9763,70,-5.168904645625,2.752204910951204,-1.3797460116874998,437.92127287621315,1.9647,7.24178096951192,13.508419324673634,3.0,-1.0
KP2AuS7,mp-976587,15,-4.401223923181818,2.89471537788957,-0.8083347160925333,599.4216382915503,1.5546,6.321024404730929,15.263204498485663,3.0,-1.0
Si(H3C)4,mp-978526,205,-5.095334669779412,0.998370777193902,-0.31831838998176504,1173.902157649854,6.1296,10.548983999999999,10.548983999999999,0.0,1.0
SrLi2(SiN2)2,mp-978840,205,-6.593698765462962,3.4033477430784917,-1.2417161235577774,1251.204025728931,3.4360000000000004,10.775631,10.775631,3.0,-1.0
Sr2LiTaN3F,mp-979340,61,-7.121646066875,5.734593287743161,-1.8186923543745839,982.5468199185117,2.9419999999999997,5.665523,16.003294,3.0,-1.0
AlTlS2,mp-985477,15,-4.484765790625,4.7847925438733405,-1.2214636546874995,820.4004148138057,2.1197000000000004,7.363102987874745,15.356295221146569,2.0,1.0
Li3PS4,mp-985583,62,-4.3975723921875,1.7953448724259742,-1.2685706510714283,666.1478629506629,2.833,6.213184,13.183623999999998,3.0,-1.0
ZnS,mp-9946,186,-3.508093720833333,3.995919403534714,-1.1417269823958336,243.0370114591261,2.0349000000000004,3.852980380814442,18.903761,3.0,-1.0
CsInI3,mp-998430,2,-2.573222405,3.3321497431334866,-0.9293976155862068,1252.697556257038,1.4536,10.934008,11.37309601917798,3.0,-1.0
RbCaI3,mp-998592,62,-3.0993942735,3.8257680240251233,-1.587759914,878.9484263048278,3.5948,4.733123,17.670616,3.0,-1.0
TlGeBr3,mp-998746,62,-3.08743439,5.328087251216743,-0.7083422989999999,644.1780040635193,2.2918000000000003,4.2238760000000015,15.615167999999999,1.0,1.0
RbSnBr3,mp-998778,62,-3.1834117175,3.980406335083583,-1.203234608,740.7247322148407,2.3054,4.553187,16.570006,3.0,-1.0
Ge3(TeO6)2,mvc-4222,230,-5.825641506470588,4.8220990640283965,-1.6430726211764703,916.153545110336,1.5528000000000002,10.59733635975923,10.59733635975923,3.0,-1.0
Mg3Mn3(AsO4)4,mvc-6446,14,-6.552790727307693,3.773769087071594,-2.1754626416094447,698.2311425748375,1.8851,5.267858,16.456876897549428,3.0,-1.0
Mg3Co3(AsO4)4,mvc-6454,14,-6.1146526725,4.022854172074983,-1.996540570384616,664.893034392922,2.0777,5.159834,16.05039820032989,3.0,-1.0
Zn3Co3(AsO4)4,mvc-6459,14,-5.745018942115385,4.621988771748264,-1.666199506153847,667.3093891973448,1.6819,5.212343,15.942076473185356,3.0,-1.0
Zn3Fe3(AsO4)4,mvc-6691,14,-5.898260342307693,4.4218302761579835,-1.761438781153847,690.5575073652043,1.6419,5.284639,16.19911865287013,3.0,-1.0
VZnBiO5,mvc-7845,61,-6.24264062,5.664836055899914,-2.020139203281251,950.5133862180456,2.6388000000000003,5.663919,15.312045999999999,3.0,-1.0