pretty_formula,task_id,spacegroup.number,final_energy_per_atom,density,formation_energy_per_atom,volume,band_gap,min_abc,max_abc,Dimension,Dim
Te4Pb5Se,mp-1217406,139,-3.8797637519999997,7.779997965740676,-0.416528697234375,346.9118872747709,0.7181999999999995,16.802493845428096,16.802493845428096,3.0,-1.0
Te16Rh9,mp-1217429,10,-5.0571177544,8.029372983162315,-0.3942543260000002,613.7545229206341,0.0,8.005805,8.90572226578844,3.0,-1.0
Te16(Mo3Ru)3,mp-1217440,1,-6.558600699642858,7.358442900850653,-0.2826445883928567,723.9925270854402,0.0,7.148480999999999,10.34748548020484,3.0,-1.0
Te10Rh7,mp-1217447,2,-5.265633382941177,8.47294821386703,-0.3842707717647053,782.4898691065382,0.0,8.864457000000002,10.566891877358877,3.0,-1.0
Y5Pt4,mp-12175,62,-7.431968118333334,9.62274468095126,-1.1413029620370372,845.470462485433,0.0,7.536931,14.745982000000001,3.0,-1.0
Ti8Cr3(B4Ru9)2,mp-1217552,65,-8.971012801351351,8.784533650003683,-0.5251418148648652,924.2320698909664,0.0,2.9748759999999996,17.626131874635288,3.0,-1.0
Ti8Ni3(B4Ru9)2,mp-1217553,127,-8.605854231756757,8.944557135087882,-0.4740030390540547,915.1570462894427,0.0,2.9792259999999997,17.526536,3.0,-1.0
Ti8Mn3(B4Ru9)2,mp-1217647,65,-8.904291769459459,8.856848659758622,-0.4982592424044737,919.995284893752,0.0,2.969246,17.602454482807364,3.0,-1.0
Ta2AgS4,mp-1217770,164,-6.992463911428572,7.160791761729356,-1.2153109498809531,138.67770232477935,0.0,3.380935597671153,14.00884,2.0,1.0
Ta(Si5W2)2,mp-1217773,139,-8.214889042666666,9.52491724755503,-0.3519941286666665,208.7089766405745,0.0,20.005697787549227,20.005697787549227,3.0,-1.0
Ti2NbNi9,mp-1217776,38,-6.872938522291666,8.266900795921236,-0.3801452561805559,575.9879803951792,0.0,8.441311,13.561961413116947,3.0,-1.0
Ta10SeS3,mp-1217794,99,-10.064551565714286,13.387979545492378,-0.6007903244084828,246.1582755333981,0.0,3.3328330000000004,22.160897,2.0,1.0
Ta12Ga3(TeSe2)8,mp-1217809,1,-6.5970713456410275,8.054951483741029,-0.6365941879487192,961.6349038381288,0.07110000000000039,7.627842,18.788299904109767,3.0,-1.0
TaWSe4,mp-1217821,187,-7.1340177350000005,8.303680884247461,-0.6674260665625008,136.10941946254292,0.0,3.4025215765695007,13.575497,2.0,1.0
TaVSi4,mp-1217836,3,-7.566143186666666,6.885345518953532,-0.4589865566666668,249.0548889083953,0.0,4.681902,13.005312,3.0,-1.0
Ta19(Ni9Mo)2,mp-1217865,164,-9.2612989,13.729492961578774,-0.2604906623076944,566.8018487656757,0.0,4.917021166046166,27.070509,3.0,-1.0
TaTiAlC,mp-1217909,164,-8.80350870625,7.783641967934159,-0.6221021620833334,114.26635104258465,0.0,3.0878181469966783,13.83835,3.0,-1.0
TaSi4Mo,mp-1217926,3,-7.8589131327777775,7.617825718278687,-0.4581336761111127,254.533817993702,0.0,4.716362,13.125935,3.0,-1.0
TaNbTe4,mp-1217942,1,-6.1618845094444445,7.883234208602523,-0.4065034444444449,495.59031322056813,0.0,7.35455241275042,9.919433639061634,2.0,1.0
Ta11(Co52B15)2,mp-1217955,87,-7.6686237166896545,9.654124045219037,-0.2887453874827582,1452.3611446582568,0.0,10.506877000000001,12.878091016496,3.0,-1.0
TaCuS2,mp-1217959,186,-6.82032826125,7.8120249023327935,-1.0945872528125014,131.20337326949254,0.0,3.3710948291801284,13.3313,3.0,-1.0
Ta3AlB8,mp-1217997,191,-8.224529673333334,9.915295771537883,-0.4950260994444449,109.9143886477012,0.0,3.0611466922200905,13.544273,3.0,-1.0
TaAl2Ni9,mp-1218003,123,-6.385246785833334,9.150552162502017,-0.4377335016666671,138.48814278773798,0.0,3.606129,10.649521,3.0,-1.0
Ta5S8,mp-1218017,12,-8.155265997692307,7.946292065141011,-1.457357760384616,242.66872955949643,0.0,5.792931894164993,13.176399276642535,2.0,1.0
Ta2FeS4,mp-1218020,164,-7.815357912857142,7.952165677742201,-1.2328553975000005,114.01366987498562,0.0539000000000005,3.3237720100567967,11.916915,2.0,1.0
Ta2Ti2NbC5,mp-1218024,160,-10.2373799,9.315322320980805,-0.663205116666667,108.84303472759235,0.0,12.883372015951881,12.883372149055269,3.0,-1.0
Ta8V(CS2)4,mp-1218036,166,-9.176476364285717,9.159015671889149,-1.1461349907142868,326.9016099351548,0.0,9.396110433711387,9.396110663494015,3.0,-1.0
Ta4MoSe10,mp-1218047,8,-6.997571906666668,7.589252430277352,-0.7818473515625006,352.1239917398684,0.007099999999999884,9.919758978075272,10.511970298908052,2.0,1.0
Ta3(CuS3)2,mp-1218053,36,-7.135150822272728,7.407716108738143,-1.261543055795454,386.6037500172957,0.0,8.855796375738775,13.222370000000002,3.0,-1.0
Ta7S12,mp-1218055,12,-8.047427706842107,7.528612664307738,-1.4853055061842118,364.2423259940204,0.0,5.766599785084188,12.793807988093775,2.0,1.0
Ta4AgS8,mp-1218056,6,-7.3813256076923075,6.7813890219770885,-1.3776651878205135,266.459412767185,0.0,3.358317,13.76451708739413,2.0,1.0
Ta3Cr5N4,mp-1218060,99,-10.419716876666667,10.962423494969833,-0.7823452941266673,130.09491367584292,0.0,2.9872099999999997,14.579035999999999,2.0,1.0
Ta2NiS4,mp-1218077,164,-7.4532795,7.597020898613432,-1.2550435846428567,119.96616621351338,0.0,3.350504364179817,12.339791,2.0,1.0
Ta8Ni(CS2)4,mp-1218138,166,-8.981799769047619,9.358399147982386,-1.1087807473809523,321.31235842836827,0.0,9.367364281832963,9.367364678195463,3.0,-1.0
TaAl4Ni15,mp-1218140,123,-6.1077618860000005,8.556137792977243,-0.4306553285,226.92795759027152,0.0,3.573443,17.771099,3.0,-1.0
Ta3V3(Ni10B3)4,mp-1218307,160,-6.787328219655173,9.055715170210766,-0.3358933998275865,581.8553725544892,0.0,12.852370565882387,12.852370570857735,3.0,-1.0
SrBi3Br3O4,mp-1218405,107,-4.930696223636363,7.0572206254349625,-1.725875707424242,239.5955197551756,0.2584,15.224305269398961,15.224305269398961,2.0,1.0
SrBi3I3O4,mp-1218434,107,-4.747450667272728,7.11398853969807,-1.5734248578787882,270.5959930616391,0.0,16.644352530805936,16.644352530805936,2.0,1.0
Sr4Zn51,mp-1218673,148,-1.4545139983636364,6.5916788188473285,-0.16351674157575774,928.642018286564,0.0,14.960967554373115,14.960967555513381,3.0,-1.0
SrCaPb6,mp-1218699,123,-3.555186875,8.982077128116194,-0.3088164308333332,253.4413424482853,0.0,5.072931,9.848261,3.0,-1.0
Sr6As19Rh30,mp-1218700,143,-6.4703200849090905,9.114427036384248,-0.6596042064545455,917.5707132395061,0.0,3.9717839999999995,16.332837459690367,3.0,-1.0
Sr2P7Rh12,mp-1218725,143,-6.9834841080952375,8.46675212403974,-0.8099765853968257,319.07962514462446,0.0,3.896432,9.72412810595685,3.0,-1.0
Sr4In17Au15,mp-1218804,6,-3.2338674708333333,10.056724286418769,-0.3826238174074075,868.0025314765179,0.0,4.4005849999999995,15.35853789590487,3.0,-1.0
Sr2Cu2RuPb2ClO8,mp-1218869,38,-5.75860230375,6.88577769975364,-1.7900876557245828,236.6332987002121,0.0,3.927289567182436,15.342374,2.0,1.0
SnTe5Pb4,mp-1218909,166,-3.836168453,7.478831519575706,-0.3785019744999992,352.0337754091205,0.6658999999999997,18.91976430178286,18.91976463623681,3.0,-1.0
SnTe(PbS)4,mp-1218922,160,-4.322915998,7.117011121433152,-0.7333739447500001,280.76995560069537,0.5295999999999994,17.583004612280178,17.583005078678447,3.0,-1.0
SnTe4Pb3,mp-1218925,123,-3.83534769625,7.413369092294139,-0.3702580981249999,280.14965802068053,0.4255000000000004,4.624875,13.097551,3.0,-1.0
Sr14Hg51,mp-1218949,174,-0.958703573846154,10.543890856675633,-0.3565430175128205,1804.3068181046274,0.0,10.372580000000001,14.172500835597644,3.0,-1.0
SnPb4S5,mp-1218954,139,-4.4484185850000015,6.904268633718988,-0.8259076380625003,266.44433964556043,0.6102999999999996,15.335250750484159,15.335250750484159,3.0,-1.0
SnPb4Se5,mp-1218958,166,-4.166518691,7.5639754545767275,-0.5325469386718751,294.6807810090357,0.27669999999999995,17.815387776693637,17.815388377264863,3.0,-1.0
Sn3BiTe4,mp-1218987,166,-3.77283562375,6.735783212084294,-0.2113414243750001,265.14021896229684,0.0,14.328801359145155,14.32880154873048,3.0,-1.0
Sn(TePd3)2,mp-1218994,107,-5.022705012222222,9.598783233397736,-0.4254311705555551,175.14507061149052,0.0,10.8840536951419,10.8840536951419,3.0,-1.0
Sn7Pd5,mp-1219006,5,-4.9173925725,8.576467769526207,-0.4201915695833331,263.9117928656894,0.0,7.000203080610802,9.73039331584356,3.0,-1.0
Re2Si8MoW,mp-1219131,99,-8.010530500833333,8.986687203214952,-0.335919165,162.02746826674505,0.0,3.207075,15.753259,3.0,-1.0
Sn13Pd20,mp-1219223,5,-5.251105609545455,10.241873932344722,-0.5322549939393942,1190.5799843612735,0.0,8.921145325665982,17.21659587948123,3.0,-1.0
Re2Os(Se2Cl)2,mp-1219275,2,-6.467987367777778,7.048233483612398,-0.6226832917661108,894.69180503446,1.289,9.075797,12.17743475162343,2.0,1.0
ScTi4(NiSn)5,mp-1219331,160,-6.334498644000001,6.941965184853473,-0.5436333208888897,268.7304637400179,0.0,17.46871912575553,17.46871963858465,3.0,-1.0
ScGa4Fe3Co8,mp-1219338,166,-6.56901365125,8.250206155038644,-0.2739260190625004,193.7948546892556,0.0,13.567245390484578,13.567245484010565,3.0,-1.0
Si13Rh20,mp-1219339,147,-7.346050567272727,8.880960579587398,-0.7455887593939394,453.0876960566349,0.0,3.6340480000000004,11.998597413010447,3.0,-1.0
Sc3Nb3(B2Ru5)2,mp-1219392,38,-8.9761461075,8.797933137583643,-0.5380068040833322,276.9846409299961,0.0,3.0661970000000003,9.504468554558114,3.0,-1.0
Sc8B8As3Rh20,mp-1219413,10,-7.593024221282049,8.450604605808692,-0.7889626925213665,536.2489536475189,0.0,3.165207,18.40849615475922,3.0,-1.0
Sc5BRh15,mp-1219416,123,-7.716464080476189,9.336985148802166,-0.630447159246031,316.4175936117112,0.0,4.026256,19.519013,3.0,-1.0
Sc2FeB2RuRh4,mp-1219428,127,-8.024363078499999,8.483494211170992,-0.7018285018333331,266.2309051427939,0.0,3.032876,9.369187,3.0,-1.0
Sc2FeB2Ru4Rh,mp-1219435,127,-8.341541463999999,8.491572846776402,-0.4459823518333323,263.8240130888947,0.0,3.029488,9.331953,3.0,-1.0
Sc2FeB2Ru2Rh3,mp-1219440,55,-8.141283372,8.423622498257206,-0.6277406168333328,267.3995070607971,0.0,3.044924,9.401525999999999,3.0,-1.0
Sc4TaFe19P12,mp-1219445,6,-8.079847222222222,6.894135653628254,-0.772148913690477,431.9897877541352,0.0,3.607449,11.745677068987765,3.0,-1.0
SbPb4,mp-1219484,166,-3.736678088,10.179774389340926,0.05923981600000019,155.0566795272061,0.0,14.278543438957104,14.278544028646618,3.0,-1.0
Sb28(Mo3Ru)3,mp-1219530,8,-6.11863866225,8.551197101211931,-0.09248888837500004,888.5941525931328,0.0,8.328537804411589,13.616915660015414,3.0,-1.0
Sc3(Ga4Fe5)4,mp-1219537,8,-6.345436443333332,7.233889932865599,-0.2724366239743596,543.4217979356282,0.0,5.013486,18.243217749720053,3.0,-1.0
Sb2Te4Pd3,mp-1219556,1,-4.3848071877777794,8.024160829685211,-0.34360145111111096,888.3457614164984,0.0,6.666125,19.975645570140948,3.0,-1.0
Re9Mo3Se16,mp-1219580,1,-7.576805093214285,8.83725615859522,-0.4170816147321424,606.3681843018883,0.0,6.7315710000000015,13.458213024324925,3.0,-1.0
Re6Se7Br4,mp-1219630,161,-6.686415465588236,7.108899380510125,-0.4695772530238964,929.4749632005116,1.6949,12.209085860852197,12.209086183303526,3.0,-1.0
Re8Pb8O27,mp-1219648,115,-7.444950792325581,9.968546016388503,-1.7730819156686055,596.2221077034084,0.0,7.481197,10.652852000000001,3.0,-1.0
Sc2Mn12GaGe11,mp-1219700,187,-7.110539942692308,7.272789669818136,-0.3225854133985411,369.40958820092027,0.0,5.126518155054755,16.230524,3.0,-1.0
Pt4SeS3,mp-1219732,115,-5.391262855,9.97589658171512,-0.6164488652148439,159.04636944541346,0.3023999999999996,3.5805260000000003,12.405952000000001,3.0,-1.0
Rb(IrO2)6,mp-1219790,87,-6.793457778421053,9.453920573182886,-1.2692945038157888,502.61416392042037,0.0,8.683917894687108,8.683917894687108,3.0,-1.0
Pb4SeS3,mp-1219960,166,-4.38073207875,7.543596880386293,-0.7850484089648444,220.9962336326532,0.4196,14.077503441416026,14.077504073831873,3.0,-1.0
Pb4Se3S,mp-1219970,123,-4.2276603025,7.752589336244867,-0.6262462300195315,235.1276945810408,0.5673000000000004,4.360137,12.368115,3.0,-1.0
Re3PbSe6,mp-1220002,9,-6.5972803035,7.794955182843442,-0.3951105544062493,1056.2588897216683,0.8851999999999998,9.885612937705584,12.416768087659724,3.0,-1.0
Ni11(GeSe2)2,mp-1220046,99,-5.390105592941175,7.6255353924609075,-0.2835641164338236,241.0056736966877,0.0,3.6177599999999996,18.413984,2.0,1.0
Ni9(SnS)2,mp-1220083,119,-5.50707196076923,7.95134680035465,-0.3542755327884613,173.2913609473046,0.0,12.851320093894401,12.851320093894401,3.0,-1.0
NiBi6Rh,mp-1220131,26,-4.648662234375,10.702236089981476,-0.08808093312500098,439.24689699044427,0.0,4.219117,11.576621000000001,1.0,1.0
Ni8Bi8S,mp-1220141,18,-4.898282592352942,9.590024064330862,-0.1433203695955887,752.6795713967905,0.0,4.228036,17.576372,1.0,1.0
Ni8Bi8SI2,mp-1220146,18,-4.624039381578947,8.901872756827863,-0.20917711753289545,905.5549032519173,0.0,4.182837,21.711272,3.0,-1.0
Ni11(GeTe2)2,mp-1220167,99,-5.255884475294117,8.267414852614943,-0.2323101864705881,261.37212343616693,0.0,3.704282,19.048079,2.0,1.0
Ni15Mo17P12,mp-1220216,2,-8.084023384318181,8.504322001821539,-0.4468094741558429,562.9424618068788,0.0,7.037802,13.334946583893206,3.0,-1.0
NbWSe4,mp-1220367,187,-6.8568878416666665,7.317748241149211,-0.6830416048958341,134.4693479329837,0.0,3.3963738573197437,13.460515,2.0,1.0
Nb4Pd,mp-1220401,69,-9.233733012,8.995919496480209,-0.1167126180000011,88.24148124977144,0.0,2.8259804866759075,11.688669793415675,3.0,-1.0
NbCuSe2,mp-1220412,186,-5.87176671,6.768926374440688,-0.573683043671875,154.24236860403298,0.0,3.5766846882223207,13.922326000000002,3.0,-1.0
Nb6TlTe8,mp-1220423,147,-6.298480424,7.887320702632864,-0.4240877133333328,375.3001667050387,0.0,3.6835519999999997,10.84652594907042,3.0,-1.0
Nb6BiSe8,mp-1220425,147,-6.881376765333332,7.480467487387973,-0.7170330072499999,310.35459762589613,0.0,3.468011,10.165378357606617,3.0,-1.0
Nb6TlSe8,mp-1220435,147,-6.869206732666668,7.311794928763892,-0.8067550632500001,316.4700098269873,0.0,3.5030069999999998,10.213638023332381,3.0,-1.0
Nb4Rh,mp-1220441,69,-9.677574388,9.0261541605959,-0.12366878200000002,87.29933956407456,0.0,2.843281768184258,11.516589942371395,3.0,-1.0
Nb6SnTe8,mp-1220468,147,-6.355657107333332,7.691651678911394,-0.37140313833333305,366.35160178476616,0.0,3.67139,10.734170079205985,3.0,-1.0
Nb6ZnTe8,mp-1220470,147,-6.1809966053333305,7.378777341153006,-0.3800645193333329,369.890619266788,0.0,3.6640879999999996,10.796634589449113,3.0,-1.0
NbAl2Ni9,mp-1220476,123,-6.2104839525,8.027749694815155,-0.4093433841666669,139.64643478597816,0.0,3.619333,10.660382,3.0,-1.0
Nb4Al,mp-1220481,69,-8.939345798,7.405078406742782,-0.1091865999999996,89.3849540370987,0.0,2.8349619780917696,11.769938674369762,3.0,-1.0
Nb6BiTe8,mp-1220488,147,-6.33531897,8.07689257441566,-0.3590341706666663,367.4366609874085,0.0,3.627479,10.81492406581965,3.0,-1.0
Nb3WSe8,mp-1220503,8,-6.698480981666666,6.629119532041477,-0.7627031973958331,274.0977638720028,0.0,6.944425487534732,11.961211438496099,2.0,1.0
NiBi,mp-1220533,8,-4.854255764375,11.220198351249774,-0.01917026937500044,633.8323628024148,0.0,8.23272113160686,11.520594413297445,3.0,-1.0
NiMo8P3,mp-1220567,1,-9.413702773125,8.81142647664347,-0.3482745644345246,692.8544691898834,0.0,4.803879,20.864608842498125,3.0,-1.0
Nb9TlSe12,mp-1220574,148,-6.982352977727272,6.995789020802559,-0.8357922471874999,943.7827477404982,0.0,10.769346911861694,10.76934756995042,3.0,-1.0
NbNi3P2,mp-1220579,6,-7.0229021183333336,7.448475564903762,-0.6448543178571432,221.33213838476257,0.0,3.5895379999999997,10.417196169890676,3.0,-1.0
NbVCo6,mp-1220600,160,-7.87225839,8.898725936598701,-0.1428686550000009,278.47703119812604,0.0,12.681497338695973,12.681497576910465,3.0,-1.0
Nb6Te8Pb,mp-1220601,147,-6.353807574,8.021258647870585,-0.3893485906666664,369.6165583352902,0.0,3.6743650000000003,10.777530199143495,3.0,-1.0
Nb12Al3Ga,mp-1220742,47,-8.641387321875,7.465438238420963,-0.1738571048437496,281.4952689058062,0.0,5.202498,10.399058,3.0,-1.0
Nb(GaNi4)3,mp-1220743,123,-5.84172054,8.996316628695228,-0.30751855828124963,185.76048869117903,0.0,3.613079,14.229788000000001,3.0,-1.0
Nb12Al3Ge,mp-1220748,47,-8.764094398125,7.4931732865991405,-0.1968809090625001,281.0997765990878,0.0,5.198894999999999,10.393608,3.0,-1.0
Ni43(GeB4)3,mp-1220773,160,-6.16130588,8.323535415017433,-0.2549668790517236,572.8557502136363,0.0,12.816066640030007,12.816066807669582,3.0,-1.0
Nb12Ga3Ge,mp-1220782,47,-8.626159319375,8.303545398687312,-0.1934733917187508,279.3085151919255,0.0,5.188428,10.368225,3.0,-1.0
Nb12TlTe16,mp-1220786,8,-6.4435361824137924,7.440639652685393,-0.4480145155172413,750.0482963025404,0.0,10.868942641516977,11.464616786555798,3.0,-1.0
Nb12Sn3Sb,mp-1220795,47,-8.777851164375,8.753034002778639,-0.19201508406250056,302.16392350520834,0.0,5.321667,10.642338,3.0,-1.0
NbNi,mp-1220799,166,-8.143996778461537,8.842814700639181,-0.20327591846153853,370.08415918485747,0.0,18.002558343526204,18.002558589212512,3.0,-1.0
Nb5Ni41B12,mp-1220806,166,-6.671141151896553,8.485953389006655,-0.33243718068965417,587.1783903491538,0.0,12.927533279250838,12.927533416420085,3.0,-1.0
Nb12TlTe15As,mp-1220809,174,-6.5022472710344825,7.5494163459624115,-0.4544560360344831,727.6542055691223,0.0,7.322042,10.712259747169176,3.0,-1.0
Nb10(SnGe)3,mp-1220810,42,-8.24605138875,8.533006488638268,-0.3141232931250011,292.5087646152602,0.0,7.882311437831483,10.563286202408797,3.0,-1.0
Nb12Tl(Te3As)4,mp-1220812,8,-6.729526118965517,7.5264773026552785,-0.5249261796551723,695.0052089293417,0.0,10.550224274194225,11.142020446614607,3.0,-1.0
Nb2Co(PbO3)3,mp-1220846,164,-7.191561819333332,8.237589444697388,-2.2058379324166664,814.6606350855627,0.0,5.762130466351228,15.29285457395842,3.0,-1.0
Nb12PbSe16,mp-1220882,2,-7.034652133103447,6.918517365461616,-0.7980007126724135,620.5402379313771,0.0,7.081735000000001,10.660681167806539,3.0,-1.0
Nb2Ni5Te6,mp-1220914,2,-5.5684163600000005,7.5016357695967875,-0.3404856630769243,551.1255246695995,0.0,7.57483510632594,10.752103942450324,3.0,-1.0
Nb12Al3In,mp-1220944,47,-8.570908833125,7.556714105996432,-0.12065435187500027,288.0044848997695,0.0,5.247730000000002,10.430681,3.0,-1.0
Nb12InSn3,mp-1221007,47,-8.61096492125,8.690441632583685,-0.1112111853125004,303.013787559478,0.0,5.326213,10.608272,3.0,-1.0
NbFe,mp-1221111,166,-9.393865843076922,8.52821508981952,-0.10821188307692337,376.52629258164734,0.0,18.139539205108406,18.139539251287832,3.0,-1.0
NaCd(RhO2)4,mp-1221126,11,-5.965599630714286,7.166223351888701,-1.2755926873809529,312.82689740643383,0.0,3.105695,10.960461343816693,3.0,-1.0
Mn5Ni8Sn3,mp-1221389,166,-6.6296717375,8.587328320165339,-0.1247754027047412,212.77899582991185,0.0,14.003108296607616,14.003108300811572,3.0,-1.0
Mn5Nb7N2,mp-1221412,74,-9.915444833214286,8.176830006969428,-0.4566868327168489,387.0873940756362,0.0,8.14717685260066,8.202809185717294,3.0,-1.0
Na2(TaSe2)3,mp-1221424,155,-6.323755758636364,7.181705316769719,-0.9439279232481068,491.37657469480416,0.0,15.739752511758278,15.739752914838052,3.0,-1.0
Na(Nb3Te4)2,mp-1221437,147,-6.276586616666666,7.172480774216392,-0.471993956888889,370.70879854057745,0.0,3.706173,10.747025540026321,3.0,-1.0
Mn2SnPd3,mp-1221536,164,-6.6580173333333335,9.383202583850627,-0.34591229571839105,193.90391005620464,0.0,4.489980223015354,11.106241,3.0,-1.0
MnHg4S5,mp-1221595,119,-3.3082835139999998,6.505091890957438,-0.5341457875280178,259.7661723493717,0.0,15.131475120604467,15.131475120604467,3.0,-1.0
MnSi2Pd3,mp-1221623,6,-6.466282962777778,8.282590189435162,-0.5409529727203066,258.8482331974109,0.0,3.5050839999999996,11.30639819345458,3.0,-1.0
Mn9Al4V3,mp-1221707,166,-8.040524875625,6.394449878259372,-0.24743864043103514,196.11187855619443,0.0,4.108890025244287,13.62111708240675,3.0,-1.0
MnCd4O5,mp-1221762,166,-4.72763918475,7.349408841353866,-1.4875649144365175,528.3234952319782,0.0,3.3339823103438926,13.83091967049874,3.0,-1.0
Mn7Ni8Sn,mp-1221903,166,-7.21841731125,7.956473385034699,-0.06950414953663753,203.03108844718216,0.0,13.883118285927155,13.883118375110293,3.0,-1.0
MgHg4Te5,mp-1221973,119,-2.145457087,6.6718700648128975,-0.2923064710000002,364.535494299962,0.0,16.827677068890527,16.827677068890527,3.0,-1.0
Mn2Ni(BiO3)3,mp-1221980,15,-6.1805716539999995,8.620368590596446,-1.6166422228320234,361.9532554615323,0.027899999999999814,5.534954012734161,13.472383214328824,3.0,-1.0
Mn11Al4V,mp-1222031,166,-7.8977600725,6.727080081239508,-0.09494878726293177,188.38788907849832,0.0,4.054878380870134,13.435739200098258,3.0,-1.0