pretty_formula,task_id,spacegroup.number,final_energy_per_atom,density,formation_energy_per_atom,volume,band_gap,min_abc,max_abc,Dimension,Dim
MgPb2WO6,mp-20216,62,-6.451685878000001,8.802020997887091,-2.141016530750001,542.2236851995124,2.8636,5.800998,11.607547,3.0,-1.0
ZrPbO3,mp-20337,38,-7.8519044220000005,7.533522789829773,-2.85243560075,76.35838009464848,3.2477,4.176356,4.276790774412282,3.0,-1.0
Ba2MnMoO6,mp-20399,225,-7.0837948435000015,6.020136434621893,-2.673051461311517,287.70721948597884,1.3695999999999997,5.881370669621326,10.186833748277527,3.0,-1.0
PtPbF6,mp-20458,166,-4.40109048125,7.467299809459822,-2.1127335333925,114.80640446253099,2.0062,4.918076466437057,4.918076737574964,3.0,-1.0
TiPbO3,mp-20459,99,-7.608794206000002,7.295112165655332,-2.7397671074166667,68.98476581295094,1.9569,3.861215,4.627061,3.0,-1.0
Ga2PbO4,mp-20496,40,-5.900402213571428,6.178149686242016,-2.0787593635714283,220.7423823892609,3.5212,5.452922571153289,8.706273,3.0,-1.0
PbSO3,mp-20507,62,-5.8435343605,6.15746392260508,-1.859007691875,309.87547600260484,3.6548,5.570302,8.054018,3.0,-1.0
V2Pb3O8,mp-20564,14,-6.681669520384616,6.607771308500942,-2.073432820384616,427.9545248907872,3.0271000000000003,6.570589,9.53470755997419,3.0,-1.0
PbF3,mp-20652,132,-4.45986304,6.581214462103825,-2.4662886721425004,266.6416475412251,2.0876,5.371332,9.241958,3.0,-1.0
Sr3NiPbO6,mp-20659,167,-5.760370341818183,6.503658744829007,-2.317532130681818,638.0540495458067,1.2262,9.523520587998222,9.523520883724096,3.0,-1.0
NaIn(WO4)2,mp-20678,13,-6.783169345416668,6.705155752816495,-2.1793432923611107,313.7654835455085,3.5232,5.166265,10.246000587908679,3.0,-1.0
PbSeO3,mp-20716,11,-5.454021018000001,6.645457817762373,-1.4649100272187503,166.99609289268602,2.8941000000000003,4.598017,6.758871550594965,2.0,1.0
Sr2NiWO6,mp-20794,87,-6.668498622,6.651097676605074,-2.560876775083333,256.53955651264323,3.0090000000000003,5.6302290225043246,9.778376900572967,3.0,-1.0
SnPbF4,mp-20815,129,-4.847618543333334,6.309453431939392,-2.613548633293333,211.54816570440784,3.4455,4.3684709999999995,11.085374,2.0,1.0
PbO,mp-20878,57,-5.43691616625,8.739853328560285,-1.4577598968749994,169.62816624417385,2.2292000000000005,4.816821,6.147622,2.0,1.0
Ba3MnNb2O9,mp-20921,164,-7.914279266333335,6.022157852216238,-3.1375213924576784,878.7516723145294,1.7496999999999998,9.363537302148476,11.819973345222824,3.0,-1.0
TiCdO3,mp-20940,26,-6.959569847500001,6.029352450479733,-2.648494210916668,229.44471704617425,2.4636,5.400747,7.692163000000001,3.0,-1.0
Sr2PbO4,mp-20944,55,-5.914817279285713,6.524207429649726,-2.4756356433333333,227.25429367255558,1.8508000000000004,3.5580760000000002,10.23817,3.0,-1.0
Cr2HgO4,mp-21074,227,-6.552019255714287,7.060928227847676,-1.8996710871428573,173.35997118502877,1.33,6.2587548553468695,6.2587548553468695,3.0,-1.0
CrBPbO4,mp-21100,62,-7.3389394278571425,6.320502550494499,-2.336832544166666,351.00237574280885,2.2358,6.035933,8.21665,3.0,-1.0
Ca2PbO4,mp-21137,55,-6.089347774285714,5.824536010860792,-2.5598465307142853,200.33746135405045,2.0278,3.42657,9.907644,3.0,-1.0
MoPb2O5,mp-21138,12,-6.377708314375,6.617986534255537,-1.88167525015625,296.24649306413744,2.9793000000000003,7.500071421054069,7.781089339695952,3.0,-1.0
NiWO4,mp-21179,13,-6.700611966666667,7.548954775930035,-1.8329577958333327,134.8548814325768,3.0290000000000004,4.674242160003052,5.739440000000436,3.0,-1.0
PbSO3,mp-21190,11,-5.841994124,6.19443377816386,-1.857467455375,154.01303269333644,3.2251000000000003,4.565639,6.50796169978965,2.0,1.0
MgTe(PbO3)2,mp-21309,225,-5.635145296999999,8.350768910308245,-1.87085850375,131.69773470875245,2.2799000000000005,5.710810739537601,5.710810739537601,3.0,-1.0
V2Pb3O8,mp-21322,166,-6.649038653076923,7.148316900536747,-2.0408019530769232,197.79660514939968,3.0266,7.5460897927216575,7.5460900169548735,3.0,-1.0
Ba3In2O5F2,mp-21445,139,-5.7940257441666665,6.026290766124469,-2.8498834473858334,209.31008283390824,1.6235,11.978308526410688,11.978308526410688,3.0,-1.0
Pb2SO5,mp-21497,12,-5.943302061875,6.610923946898577,-1.927475643046876,264.4745954127918,3.3214,7.1836763531118235,7.564537254190239,3.0,-1.0
P3Pb5O12F,mp-21554,176,-6.534493522380951,6.824894697236067,-2.3834635846144905,652.0179820629077,3.7225,7.484521000000001,10.029573243842133,3.0,-1.0
TlF,mp-2175,225,-3.837006635,8.090510190687077,-1.945905078095,45.84804124642541,2.3992,4.017401721467247,4.017401721467247,0.0,1.0
Na2W2O7,mp-21896,36,-6.7308800954545465,5.9611327815397095,-2.2251332177651517,292.85414609411674,2.4571,3.878537409718364,13.805816318630404,3.0,-1.0
V2Pb2O7,mp-22005,14,-6.874143414318183,5.957685268707236,-2.1515284542045454,700.4609643254628,2.8682,7.2446199999999985,13.757947926624816,3.0,-1.0
Pb3SO6,mp-22023,11,-5.840274375,7.105224799799348,-1.8317819860624995,350.4018736908094,2.9588,5.88815,8.330411377136485,2.0,1.0
HfPbS3,mp-22147,62,-6.370198374,6.448407065734326,-1.5524372698750006,496.3637437596648,1.4886000000000004,3.7744739999999997,14.197548999999999,3.0,-1.0
MoPbO4,mp-22169,88,-6.663822491666667,6.475804502782965,-1.9954971624999989,188.2843521158706,2.9475,7.302425076504928,7.302425076504928,3.0,-1.0
In6Ge2PtO9,mp-22186,225,-5.653119478888889,7.256076496647469,-1.7621164222916663,268.49979127660924,1.7236000000000002,7.241351852697258,7.241351852697258,3.0,-1.0
In6TeO12,mp-22189,148,-5.629587106315789,6.8732899734848525,-1.9137245307894728,243.6467810259255,1.7397999999999998,6.328535407849119,6.328535679672668,3.0,-1.0
V5(PbO6)2,mp-22296,13,-7.313517211052632,5.379295750331931,-2.2933693102631585,531.6274675259294,1.8291,5.382994,11.925023767448096,3.0,-1.0
TlVO3,mp-22330,57,-6.5163180305,5.649783367499943,-2.01620693925,356.60106488025747,3.0073,5.305669,11.351662,1.0,1.0
PbSeO4,mp-22342,14,-5.445920177083334,6.129956979322626,-1.4140501066406257,379.41563128630486,3.1955,7.067698,8.896205783766753,3.0,-1.0
Sr2InSbO6,mp-22355,14,-6.165650668,6.066295912873559,-2.592286639083332,278.0100614586075,1.7733,5.803042,10.063155644807447,3.0,-1.0
CrPb2O5,mp-22373,12,-6.24425462375,6.617905579147017,-1.7075460045312498,274.19765284340104,1.9222,7.261711351161791,7.609674530565548,3.0,-1.0
PbWO4,mp-22410,88,-6.882629310833334,7.957996628301401,-1.998890075000001,189.89897756043285,3.6169,7.281516907870297,7.281516907870297,3.0,-1.0
BAsPbO5,mp-22430,144,-6.617823053333333,5.794690416668223,-2.082887479635416,320.6025475201676,3.3938,7.0124679999999975,7.265788011680839,3.0,-1.0
Sn(PbO2)2,mp-22467,135,-5.847668296428572,7.688723786382692,-1.7880214578571432,515.8309879825953,2.08,6.48238,8.920444,3.0,-1.0
HfPbO3,mp-22535,221,-8.249781514,10.036049633632498,-2.96841504875,71.75693874710116,2.7053000000000003,4.155481,4.155481,3.0,-1.0
Pb3SO6,mp-22577,63,-5.82199545,6.420776911719222,-1.8135030610624998,387.75433519577973,2.9131,6.0318309999999995,8.078921694148049,2.0,1.0
In2O3,mp-22598,206,-5.654259468499999,6.751274625874236,-2.0061866952500003,546.2938018339478,0.9325,8.919682339852859,8.919682339852859,3.0,-1.0
Pb2WO5,mp-22681,12,-6.531296059375,7.480351071478393,-1.8737025651562504,301.1192988542444,3.0994,7.542368151211196,7.802304007575519,3.0,-1.0
HfPbO3,mp-22734,55,-8.28103766825,10.05765386459058,-2.999671203000001,572.82241645547,2.716,5.897387,11.785217999999999,3.0,-1.0
P2Pb3O8,mp-22750,166,-6.611416644615384,7.344013687391832,-2.309121515164835,183.49617181821603,3.1976,7.560208853367015,7.560209370702507,2.0,1.0
BiClO,mp-22939,129,-4.824257753333334,7.213106012240296,-1.694407501503333,119.9091869411492,2.6391000000000004,3.913872,7.827791,2.0,1.0
FeBiO3,mp-22949,160,-6.21821758,7.773373896524185,-1.7454108607500003,133.6500252449514,1.8606,5.662175000004328,5.818595242377407,3.0,-1.0
PbClF,mp-22964,129,-4.276706146666666,6.85677434622254,-2.1476900864833333,126.73083724380356,3.7187,4.156022,7.3371369999999985,3.0,-1.0
PbIF,mp-22969,129,-3.883044926666667,6.909090836228223,-1.6639749870633336,169.73032469128705,2.1662,4.235855,9.459698,2.0,1.0
SbO2,mp-230,33,-6.0544659195833335,6.281214897722727,-1.8476885270833336,325.1886756189208,1.9048000000000007,4.906578,11.937484,3.0,-1.0
PbBrF,mp-23008,129,-4.081057245,7.34736775378373,-1.8243493303966671,138.36111541632968,2.8629999999999995,4.222418,7.760534,2.0,1.0
BiSbO4,mp-23018,15,-6.018575050833332,7.980126337754114,-1.8516254799999992,164.27756712834827,2.4242,5.6070174180062065,6.55981668803786,3.0,-1.0
VBiO4,mp-23044,88,-6.854568935833334,6.81219894492985,-2.142135226666668,157.91699230506762,2.3424,6.919576753652568,6.919576753652568,3.0,-1.0
PbICl,mp-23053,62,-3.2253909583333336,6.443454688447287,-1.0618874044200002,380.9537870354672,2.7509,4.632378,9.872183999999999,1.0,1.0
Bi2MoO6,mp-23064,29,-6.411890811666668,7.710126841968976,-1.9042569825,525.4171029701607,2.1438,5.617506,16.624801,3.0,-1.0
BiBrO,mp-23072,129,-4.640111973333333,7.2942964094684895,-1.3825698670833326,138.81296625574095,2.3083,3.9529099999999997,8.883747,2.0,1.0
BiOF,mp-23074,129,-5.40060968,9.037539932181831,-2.2151930424800006,89.65611014781229,3.1303,3.7974910000000004,6.217079,2.0,1.0
BiPbClO2,mp-23084,63,-5.151706990999999,7.8367370925051185,-1.6821343321519988,204.9552390200156,2.0992999999999995,5.654331,6.9559734657149175,2.0,1.0
SrTa2Bi2O9,mp-23089,36,-7.94896870392857,8.370517419916622,-2.8492476787797623,401.3102874436045,2.6137,5.614125,13.064067010398755,3.0,-1.0
Ba2BiSbO6,mp-23091,148,-6.1951412239999994,7.168423239519623,-2.4620442217500003,162.4746175606501,1.9838,6.103001957349267,6.103002719112044,3.0,-1.0
Ba2TaBiO6,mp-23092,148,-7.466397351,7.7765059147786335,-2.9604227097500004,162.40849363502502,2.7412,6.097276714910683,6.09727723741163,3.0,-1.0
Nb2Bi2PbO9,mp-23101,139,-7.33481169,8.031599020658431,-2.341503476517857,197.44037681167976,1.3340000000000003,12.86882012230251,12.86882012230251,2.0,1.0
Pb2ClOF,mp-23104,67,-4.803891447,7.341658199862463,-1.9348193031400007,219.327481140724,2.6032,5.868793,7.041739701472144,3.0,-1.0
Ba2BiSbO6,mp-23127,12,-6.1952789489999995,7.168280676948142,-2.4621819467500003,162.47784885143284,1.9255999999999995,6.108494420493809,6.156581549126513,3.0,-1.0
KBi(WO4)2,mp-23136,15,-6.832090635,7.128121938287872,-2.150423139416666,346.5239280636538,2.7693000000000003,7.532031747544881,7.7885317699865615,3.0,-1.0
Ba2YBiO6,mp-23137,225,-6.78814637,6.695812406516987,-2.821302380416667,165.79485167451938,1.8249,6.166357212249223,6.166357212249223,3.0,-1.0
SbPbClO2,mp-23138,63,-5.230551793,6.701383844347715,-1.713185748152,196.4541341461684,1.9131,5.505813,6.898050998759072,2.0,1.0
Bi2O3,mp-23195,114,-5.7318681495,8.287992603110624,-1.6284551442499997,373.42848141223976,1.6693000000000002,5.726704,8.075164,3.0,-1.0
Bi2O3,mp-23262,14,-5.754317542000001,9.060332735455225,-1.6509045367499993,341.59589742483934,2.2487999999999992,5.933349,8.276447000000001,3.0,-1.0
Bi2WO6,mp-23329,41,-6.608306833333334,8.876953314223233,-1.957063733055556,261.0624321539503,1.9543,5.500058999999999,9.000388815337367,3.0,-1.0
Si3(BiO3)4,mp-23331,220,-6.831102815789473,6.513030275594074,-2.474046767105264,567.1102850868382,3.987600000000002,9.031567625869386,9.031567625869386,3.0,-1.0
Bi2TeO5,mp-23334,39,-5.6732615484375,7.527408813058576,-1.65429943671875,551.9897702456648,2.5328000000000004,8.855401880143047,11.718463,2.0,1.0
Ti3(BiO3)4,mp-23335,139,-7.24285512263158,7.945260423456067,-2.4957709692105268,244.8437162714585,1.4192999999999998,16.841035515614205,16.841035515614205,2.0,1.0
Ge(Bi3O5)4,mp-23352,197,-5.833805331515151,8.819518199972118,-1.7060250603030305,546.086015549079,2.4228000000000005,8.918551310675518,8.918551310675518,3.0,-1.0
Bi4B2O9,mp-23356,14,-6.571060312999999,7.901067387953421,-2.0957329796388886,841.9588018337497,3.0542,6.657706,11.275623312794727,3.0,-1.0
Sr2Bi2O5,mp-23357,62,-5.961017126944442,6.3018971662134735,-2.362421741342593,709.5458506955307,2.2583000000000006,6.254263,14.620497,3.0,-1.0
Sn2Bi2O7,mp-23372,227,-6.072719322727273,8.218648454066816,-1.9346401762500007,310.08962853597717,2.8766,7.597442342421428,7.597442342421428,3.0,-1.0
NbBiO4,mp-23413,52,-7.685735743333333,6.9196288958741,-2.523402205833333,351.2126537369578,2.965,5.108065,11.793464,3.0,-1.0
Al4Bi2O9,mp-23426,55,-6.931953459666668,6.009409612677578,-2.8670627157500017,370.2075787043258,2.8710000000000004,5.767651,8.247794,3.0,-1.0
Ti3(BiO3)4,mp-23427,41,-7.3012612894736835,7.689445570398604,-2.5541771360526297,505.97850547570295,2.4396000000000004,5.470425,16.935585944575553,3.0,-1.0
GeBi2O5,mp-23446,36,-6.078223689375,7.774213430947987,-1.874295712031251,243.75454742319198,2.5151000000000003,5.481599,8.408340303547424,3.0,-1.0
CrBiO3,mp-23456,15,-6.846867662999999,8.2605226129062,-1.99345202575,248.44169502757873,1.5603999999999996,5.567568029054517,9.763593378060149,3.0,-1.0
MnBiO3,mp-23477,15,-6.6393516455,8.011892827783502,-1.8177742383730344,258.5904657881425,1.5698999999999996,5.629016165983981,9.855650117387539,3.0,-1.0
Bi2WO6,mp-23480,29,-6.6083098752777785,8.948786802831055,-1.9570667750000004,517.9336760140576,1.9222,5.4865080000000015,17.107781,3.0,-1.0
Ti(Bi3O5)4,mp-23494,197,-6.047508066060606,8.690230776076799,-1.82056221419192,549.4766642715311,2.3865000000000007,8.936971671014012,8.936971671014012,3.0,-1.0
FeBiO3,mp-23501,161,-6.250164487999999,8.104437582714587,-1.7773577687499995,128.1904644098597,1.3197,5.6156290103115785,5.705140126012508,3.0,-1.0
VBiO4,mp-23506,15,-6.8543146425,6.802827282593934,-2.141880933333334,158.13454078417917,2.3330999999999995,5.177447781268488,6.925566257221861,3.0,-1.0
Ga4Bi2O9,mp-23519,55,-5.956161162000001,6.850152386891791,-2.0825985054166667,407.6580717885547,2.8907000000000003,6.004868,8.444552,3.0,-1.0
Bi4Br2O5,mp-23544,4,-5.1651371947727265,7.654103979911323,-1.5231083162500008,933.5049792733473,2.5139,5.741446,14.806727765791635,3.0,-1.0
GeBi2O5,mp-23553,62,-6.0527895146875,7.688239474325718,-1.8488615373437505,492.9606791672484,2.4339,3.9711760000000003,11.197249000000001,3.0,-1.0
Ge3(BiO3)4,mp-23560,220,-6.17060678763158,6.825363778758232,-1.940227501842105,606.1967563260193,3.5617000000000005,9.234466985671236,9.234466985671236,3.0,-1.0
BaTa2Bi2O9,mp-23611,139,-7.9097958407142865,8.856651032724633,-2.793682702946428,198.96095993754082,1.9121,12.939761452833896,12.939761452833896,2.0,1.0
SrNb2Bi2O9,mp-23614,36,-7.539197874642857,6.7986327431944025,-2.690401505208333,408.08048554871766,2.6757,5.688484,13.012445347588784,3.0,-1.0
MnNi(BiO3)2,mp-23618,15,-6.0212259470000005,8.582020350886701,-1.586120503811518,242.86483139588097,1.0022000000000002,5.511656069333156,9.726501015201768,3.0,-1.0
VBiPbO5,mp-23637,12,-6.542500650625,7.060983231671525,-2.01338630140625,257.3330873950112,2.6264,7.283306294722815,7.283709130265567,3.0,-1.0
VBiPbO5,mp-23642,2,-6.55817526375,6.8006908193035125,-2.02906091453125,267.1823588704958,2.9306,5.831279,7.333377144424592,3.0,-1.0
Hg3AsClO4,mp-23644,198,-3.7418554452777775,7.97782880189548,-1.0966696284177777,646.1980954169668,2.053,8.645469,8.645469,3.0,-1.0
PbF2,mp-2511,62,-4.8635555550000005,8.049955688769865,-2.678973109126668,202.316083106279,4.3996,3.94636,7.8079399999999985,3.0,-1.0
LiBi3(PO5)2,mp-26173,1,-6.49380768375,6.2563765556144775,-2.3149169208110125,227.14884808999764,3.3947,5.651299,6.878257577564247,3.0,-1.0
TlF3,mp-2632,62,-3.778011025625,8.023652628270979,-2.1221851802675,216.37488384340102,1.2695999999999998,5.036053,7.2701850000000015,3.0,-1.0
B10(Pb2O7)3,mp-27184,2,-7.284417458648647,5.821578821557621,-2.467423540484234,481.2823695347563,3.3532,6.953417999999999,11.40521234583285,3.0,-1.0
KTlF4,mp-27209,144,-4.045775703888889,5.241142976022371,-2.5200669601822216,607.3115052480689,2.3213,8.216653915036826,10.387018,3.0,-1.0
RbTlF4,mp-27210,57,-4.0236705925,5.188858734866064,-2.519605994543334,468.3106393561419,2.7161,6.4544440000000005,8.563958999999999,3.0,-1.0
Tl6Si2O7,mp-27228,147,-5.562183306333335,6.682960493807204,-1.912836359583334,692.9761947611709,1.6009999999999995,8.110578,9.932714300921882,3.0,-1.0
Bi2TeO6,mp-27251,64,-5.67126695,8.500855969448658,-1.6271155763888885,250.640829085263,1.4188,5.457625,8.85045676776165,3.0,-1.0
Pb2OF2,mp-27355,137,-5.1247909015,7.6527701856330435,-2.222378926226,406.540471232038,2.8596,5.825488,8.353832,3.0,-1.0
Pb7(ClF6)2,mp-27581,174,-4.701436443333334,7.624294026286851,-2.532730107657143,380.98729191679183,4.231,4.034987,10.44164316751286,3.0,-1.0
Zr3N4,mp-277,62,-9.900996422857146,6.143260208405527,-1.6934263313600009,356.4737413284578,1.2735999999999992,3.3016870000000003,10.900654,3.0,-1.0
BiAsO4,mp-27911,14,-6.0316143125,6.876996355342786,-1.7763118808333331,336.0193009878176,3.1697,6.8359130000000015,8.38994656318245,3.0,-1.0
Pb4IF7,mp-28087,63,-4.611070868333333,7.5856469733362815,-2.4178665490275,476.6416760310876,3.0884,6.0788519999999995,13.084282826785195,3.0,-1.0
SiBi2O5,mp-28144,36,-6.594575105,7.571691777058519,-2.2903613570312498,230.731909352108,2.9032,5.392355,8.189568026472825,3.0,-1.0
LiGa5O8,mp-28146,212,-5.9658259410714285,5.571646671357728,-2.3219170747023807,576.4584193244552,2.5222999999999995,8.322542,8.322542,3.0,-1.0
TlBO2,mp-28244,76,-6.587013085625,5.961792285065408,-2.2039191635416664,550.8059052271489,3.0635000000000003,7.6257160000000015,9.471905,3.0,-1.0
Ta2Zn3O8,mp-28251,15,-7.37069524,6.860184873534008,-2.642994483076923,332.1559689364392,3.5092,6.185782494678018,9.650115005810553,3.0,-1.0
LiBiO2,mp-28253,72,-5.420323584375,6.939531221755344,-1.8477515558333328,237.29624629898342,2.5090000000000003,9.980189374837083,9.980189374837083,2.0,1.0
BaGe2O5,mp-28288,64,-6.5019084953125,5.858231305683137,-2.4527392598437503,411.1262094559529,1.8242000000000005,5.742734790995402,14.612313,3.0,-1.0
CdTeO3,mp-28290,14,-4.8988554145,6.029743300587933,-1.5382179952500004,634.5219082126837,2.9734,7.5956509999999975,11.451422,3.0,-1.0
HgTeO3,mp-28318,2,-4.4164236415,7.418715923581827,-1.1796281012499996,336.8104178289305,2.1965,6.3140519999999976,7.683842415052379,3.0,-1.0
Ba2WO5,mp-28403,62,-7.0775916515625,6.9374531521772775,-2.8684172173437488,515.5698051708596,3.1711000000000005,5.807481,11.729036,3.0,-1.0
Sn15Os3O14,mp-28456,8,-6.24203284,7.540754566974074,-1.452504785703126,567.1101868211997,1.6140000000000008,7.26012715688713,13.154314260470025,3.0,-1.0
KPbO2,mp-28574,2,-4.910428936875,6.172045816066753,-1.5818346982499998,598.9886924928672,1.4532000000000005,7.1228269536337185,13.084022690641993,3.0,-1.0
In3Sb5O12,mp-28617,217,-5.82679608125,6.162615540032397,-1.8343939305,617.1817923558605,2.3275999999999994,9.289913396123133,9.289913396123133,3.0,-1.0
Ba2Bi2O5,mp-28670,14,-5.946517100555559,7.174386749051673,-2.296924031250001,357.6478721016062,2.1057,6.296304,7.602070882573116,3.0,-1.0
SrHgO2,mp-28688,166,-4.670998125,6.293361634115808,-2.0498749860416665,253.46670958174357,2.2897,3.899834593623812,19.244111,3.0,-1.0
Fe2Pb3F12,mp-28700,2,-5.077878294411764,6.237195659191487,-2.74502249584,511.841496713108,3.1628000000000003,7.537985000000001,10.040004328341,3.0,-1.0
Si2Hg6O7,mp-28712,12,-4.415376251333333,8.313681139764226,-1.589218350583334,273.97884174632543,1.5795,6.248493484308036,7.172609122461992,2.0,1.0
Ba(AuF4)2,mp-28719,82,-4.035535524545455,5.801833016387256,-2.232705071774545,391.10361715157853,2.5159,8.084257139974211,8.084257139974211,3.0,-1.0
Ta7Cu3O19,mp-28752,176,-8.963792118275864,8.363505379002003,-2.895871175991379,699.3823346683048,1.1803,6.285716227786933,20.439698999999997,3.0,-1.0
SrSnO3,mp-2879,62,-6.334326583499999,6.126942681492804,-2.6471166805833333,275.71461578299665,1.7637,5.786378,8.190656,3.0,-1.0
Sr5(AuO4)2,mp-28796,139,-5.6166845946666655,6.8020273267796245,-2.352651721555555,234.36609171148632,1.4284,6.809984568917098,6.809984568917098,3.0,-1.0
Ca2Bi2O5,mp-28848,2,-6.0691743740740725,6.202404431213878,-2.400330404768517,928.6532929159863,2.494,10.236075,10.662957232189623,3.0,-1.0
Cd4OF6,mp-28855,137,-3.8116670359090894,5.962699754940562,-2.3152556439445453,322.84188057822325,1.9005,5.5230690000000005,7.645478999999999,3.0,-1.0