pretty_formula,task_id,spacegroup.number,final_energy_per_atom,density,formation_energy_per_atom,volume,band_gap,min_abc,max_abc,Dimension,Dim
AlBPbO4,mp-559276,62,-7.172537218214287,6.104435221923113,-2.7267834259523807,336.20813568257165,3.0563,5.823832,8.172511,3.0,-1.0
BiTeIO3,mp-559332,14,-4.90124922,6.3110335723692526,-1.3521918431249995,538.319189654159,2.4117,7.174108,9.588579942303973,2.0,1.0
Ti2Bi2O7,mp-559482,227,-7.489269364999997,7.361377648399728,-2.6446592800378794,282.2796858221928,2.6238,7.363170794746512,7.363170794746512,3.0,-1.0
Tl2CuAsO4,mp-559727,4,-5.121973385,6.795651661550938,-1.31393677125,298.7128632242446,1.7204999999999997,5.488766,8.946577279845629,3.0,-1.0
Bi2Te2WO10,mp-559837,15,-6.118538156333332,7.475896245348414,-1.7765080471666663,451.78786342301595,3.0266,6.955636115459894,12.481418529993615,3.0,-1.0
CrBiO3,mp-559851,62,-6.858347761,8.433114737028108,-2.00493212375,243.3570873586016,1.8454000000000008,5.467639000182895,7.840756000270447,3.0,-1.0
Ba3In2Cl2O5,mp-559933,139,-5.499610243333334,5.578266375326416,-2.5832511393975004,235.91745759628128,1.4493,13.109704887384307,13.109704887384307,3.0,-1.0
SrTa2Bi2O9,mp-559951,41,-7.9383635439285705,8.384334645728545,-2.838642518779762,400.64893563734273,2.4005,5.593824,13.059770232188509,3.0,-1.0
Tl2SeO4,mp-559961,19,-4.8450823467857145,6.4334061890390615,-1.2448138735491068,569.6264536503489,3.3931,6.43887,10.924216,3.0,-1.0
Tl4Ni7(PO4)6,mp-560035,8,-6.055097786097561,5.771332092456187,-1.92984766174216,517.3860203196244,3.1254,6.782301074548961,9.037334080935262,3.0,-1.0
Mn2Ni6Te3PbO18,mp-560090,176,-5.675382588833332,6.497235169352898,-1.4679472216243454,684.9575089997056,1.8047000000000004,8.930882,9.410643333185037,3.0,-1.0
SbO2,mp-560098,52,-6.053309043333333,6.251740091470972,-1.8465316508333327,326.7218284801872,1.9221,4.913241,11.913872,3.0,-1.0
MnBiPO5,mp-560153,14,-7.1115706753125,5.563850451201417,-2.360007695992075,447.54486435613813,2.815,5.458507878489597,11.442345000002973,3.0,-1.0
SrTlVO4,mp-560156,19,-6.5911697260714295,5.80932361031048,-2.528926557738095,465.2822244962514,3.2775000000000003,5.955183,10.189353,3.0,-1.0
ZnTe6O13,mp-560198,148,-5.2901840915000005,5.775785610654459,-1.5245240773124995,597.425943117298,2.972700000000001,8.798844026038479,8.79884465648917,3.0,-1.0
TaBiO4,mp-560261,2,-8.168542364583333,8.993486112766494,-2.7134633954166665,335.247821647625,2.9491,5.617724,7.838904557280562,3.0,-1.0
InAg(WO4)2,mp-560403,13,-6.6303464000000005,7.461738818607959,-1.9000283647222225,319.72900623718346,2.3882,5.169282,10.412531313803814,3.0,-1.0
Nb2Cd2O7,mp-560530,46,-7.1813937959090905,5.8577604414421724,-2.475207624886364,296.3072563156484,2.1745,7.481363044790767,7.481363044790767,3.0,-1.0
BaWO4,mp-560531,11,-7.257759538333333,6.8093151873308075,-2.672966342499999,187.85468076476937,2.6998,4.197043,7.841081519301086,3.0,-1.0
Ba3Zn5In2O11,mp-560544,216,-5.251591782619047,6.091077638976975,-2.191529013273809,624.1079566386513,1.6195,9.592347549854102,9.592347549854102,3.0,-1.0
BaBi2(B2O5)2,mp-560550,14,-7.279359536617648,6.161912028907207,-2.6397559353921567,817.6434314641757,3.3514,6.4802669999999996,12.605111970285904,3.0,-1.0
RePbClO4,mp-560625,31,-6.899460675,6.236937284657958,-1.9860768026085711,262.43948326493353,3.3721,4.684515,9.601449,2.0,1.0
VBiPbO5,mp-560699,1,-6.559942950625,6.811652115885155,-2.0308286014062507,266.7524095678688,2.9338,5.831397,7.329066743052148,3.0,-1.0
Na2PtO3,mp-560860,70,-5.0871227875,6.854523133765029,-1.5142546959027785,280.10602644186787,1.5485000000000002,5.577872017002988,10.557392676202634,3.0,-1.0
AgPb4ClO4,mp-560923,85,-4.935955608,7.345343813075236,-1.343989894492666,468.4643193899436,2.4592,6.551467,8.456078,2.0,1.0
SrBi6(PO5)4,mp-561005,2,-6.657628582258066,6.731192735756992,-2.4125918101920125,440.4423408639376,3.5295000000000005,7.050874,9.283278335311616,3.0,-1.0
Ga2PbO4,mp-561013,9,-5.899532394285713,6.162028202023679,-2.0778895442857137,221.31990243904545,3.5431,5.452488344684562,8.72008111058613,3.0,-1.0
BiAsO4,mp-561068,88,-6.026779103333332,7.3389554581258025,-1.7714766716666663,157.43408727596898,2.7515,6.961507473607424,6.961507473607424,3.0,-1.0
InBiO3,mp-561102,62,-5.664376900500001,8.697008401781114,-1.78863401125,283.95179151608767,2.388700000000001,5.6783550000000025,8.203608000000001,3.0,-1.0
Al2Si2Pb2O9,mp-561246,60,-7.148620037000001,5.951734497411502,-2.8834158330833324,746.0803139762552,2.7587,6.971686,10.845604,3.0,-1.0
ZnBi6P2(O7F)2,mp-561255,15,-6.0188237172,7.038753325735662,-2.110546196280916,775.3200179518547,2.5958,8.967786463968965,16.905200703068534,3.0,-1.0
Hg2Mo2O7,mp-561361,15,-5.7152861759090925,6.709219286827749,-1.6283493512500002,698.0083076619667,2.2744,7.316332199597283,14.935757128377025,2.0,1.0
Hg2PO3F,mp-561472,72,-4.784405973571428,6.254725514231465,-1.901806954787347,530.0687805636511,1.8889,9.026791022821676,9.026791022821676,2.0,1.0
Ba3Nb2CoO9,mp-561599,12,-7.671250636333334,6.207838444839889,-3.0442619974166667,428.371142503369,1.6989,5.820669222088041,10.215416816595493,3.0,-1.0
Ba2CoMoO6,mp-561894,139,-6.7083480410000025,6.296939520696896,-2.5222585112500004,277.16717209981965,1.2990999999999997,5.7346429795692595,9.997354680303284,3.0,-1.0
GePb3O5,mp-562283,35,-5.753426758888889,8.02282433129631,-1.6435049356944438,160.24915070020623,1.9847,5.397632165974724,5.500928,3.0,-1.0
CsNb2BiO7,mp-562854,26,-7.649774291818183,5.937213972103487,-2.676346560607368,357.8235740320888,2.4862,5.491112,11.662477,3.0,-1.0
SrZnO2,mp-5637,62,-5.303244848125,5.370846708193433,-2.4431058979166664,228.8249186768529,2.6565000000000003,3.3748110000000002,11.457474000000001,3.0,-1.0
WO3,mp-566278,57,-7.51038303875,6.652246439711198,-2.1743523196874994,231.48654621817505,1.3113,3.8849519999999997,7.749755,3.0,-1.0
Rb2Te(WO4)3,mp-567014,186,-6.6956757994444445,5.804513113459989,-2.147135015555554,596.2126516608307,2.9906,7.422085978286293,12.497369,3.0,-1.0
HfIN,mp-567441,166,-8.01794992,7.387807664148427,-1.540058702459999,143.58200560000182,1.2242000000000006,12.234173847446339,12.234174086452752,2.0,1.0
HfBrN,mp-568346,59,-8.351405505,6.7678952570304025,-1.8358763124600008,133.6699186203598,2.1298000000000004,3.5820260000000004,9.053208999999999,2.0,1.0
Tl3PO4,mp-5709,173,-5.59110625875,6.629024253391102,-1.9059929241964284,354.76202062153465,2.6408,5.217914,8.860429594307153,3.0,-1.0
TaNO,mp-5813,12,-10.2878743375,8.475711203181918,-2.26923590871,165.31819768151033,2.2545999999999995,6.76544949447958,6.871117639514113,3.0,-1.0
BiP(PbO2)4,mp-581609,2,-6.062953081071428,7.982767855725262,-1.9115793523979587,497.8847197978743,2.6873,6.444372,11.054820858533935,2.0,1.0
Ta3Bi7O18,mp-581875,12,-7.317662780892857,9.080749625916935,-2.345321655982143,838.8671363077021,2.3454999999999995,6.714017824973956,16.745330718232893,3.0,-1.0
Nb2Bi2PbO9,mp-583454,36,-7.3733723575,7.753170379628871,-2.380064144017857,409.0615475717242,2.3591,5.700476,12.9954512676036,3.0,-1.0
Sr3MgPtO6,mp-6064,167,-6.109642635,6.235092055281237,-2.635676786590909,307.998364184034,2.7327,6.758287658532523,6.7582878200066325,3.0,-1.0
V2PbO6,mp-607026,62,-7.077906276666668,5.608620722705719,-2.1900782741666682,479.7259091182666,2.2635,3.6784790000000003,13.089213,3.0,-1.0
CrWO4,mp-608594,12,-7.730926870833333,7.5034878918851975,-2.192620901666667,132.7077699083577,1.6997999999999998,4.737278181427073,5.578556089393473,3.0,-1.0
BaY2ZnO5,mp-6121,62,-7.393180642500001,5.929858344692064,-3.2442935302314817,515.8655885600521,3.0984,5.771599,12.463464,3.0,-1.0
CuBi(WO4)2,mp-615173,2,-6.7818610391666665,7.550601702463331,-1.8511262333333327,168.94398858417617,1.2373000000000005,5.163723,6.256664559033832,3.0,-1.0
ReHgO4,mp-616597,14,-6.724807774583333,6.7513204601897225,-1.769662870416666,443.50556234226497,2.758,5.202787,15.603307297715636,3.0,-1.0
WO3,mp-619461,14,-7.5095124084375,6.702580391540673,-2.1734816893749995,459.4963321482608,1.3712,7.6802220000000005,7.75095858565539,3.0,-1.0
BAs5(Pb3O10)2,mp-622018,81,-6.1176324725,5.841255292602803,-1.8312519852864584,553.9456652490212,3.1525000000000007,7.337289,10.289539,3.0,-1.0
Ba2Ta6Te2O21,mp-6238,12,-8.583793577419353,6.90473115932109,-3.086045701814515,469.32886132078784,2.8945000000000003,8.917581568548783,9.742840719365015,3.0,-1.0
TePb2O5,mp-624234,9,-5.55107503375,8.378154829136005,-1.5764597320312506,246.5579447675384,2.1878,7.265277824902912,7.659457785050321,3.0,-1.0
SrLi2Ta2O7,mp-6259,139,-8.1303078725,6.499342627097795,-3.2184294951736123,147.0092499919029,2.2312,9.686696431537484,9.686696431537484,3.0,-1.0
Ba2LiReO6,mp-6270,225,-7.117696036,6.705229380643536,-2.751157583583333,139.62374972423694,1.8665,5.8231516222918325,5.8231516222918325,3.0,-1.0
Ba4Na(SbO4)3,mp-6273,229,-6.1663374960000015,6.299665564891317,-2.5500612519166665,297.74533893108355,1.8954,7.2859964296966275,7.2859964296966275,3.0,-1.0
Fe4Si2Sn7O16,mp-628588,164,-6.471373155517241,5.782254723141422,-1.9956390160344823,784.8653071518306,2.4624,6.940347020809478,11.690663504549004,3.0,-1.0
V3Pb5ClO12,mp-628782,176,-6.493686397142858,6.573869737179531,-2.066505913250476,715.4909531335837,2.7968,7.325772,10.61964667965865,3.0,-1.0
PbSeO3,mp-630329,14,-5.45092778325,6.7191858867537455,-1.4618167924687495,660.654733923806,3.3187,8.168735,9.304022772401893,3.0,-1.0
Fe3Pb4ClO8,mp-630866,123,-5.83826667125,7.810750962803072,-1.6332184433287509,246.56596037408661,1.2797999999999998,3.976381,15.593986,2.0,1.0
VBi(PbO3)2,mp-631621,62,-6.31219233975,7.052775632770162,-1.8930696065000001,725.469629246936,2.4006,5.802282,12.390291,3.0,-1.0
Sb2Pb2O7,mp-633099,46,-5.945405289090909,7.954710317852696,-1.8178639344318184,321.4385471770907,1.6729000000000005,7.645773507989626,7.645773507989626,3.0,-1.0
WO3,mp-636284,63,-7.50856041125,6.6403483855897045,-2.1725296921875,115.95065977732908,1.3085,3.8851537050867115,7.6816910000000025,3.0,-1.0
Ga2Ge4Pb3O14,mp-636461,150,-6.148049870869565,6.689967634697796,-2.0121559492391308,316.62031323965937,2.1697999999999995,5.0110160000000015,8.541638434804941,3.0,-1.0
Ag2WO4,mp-637188,34,-5.80998870517857,7.533937545838218,-1.3450029406547617,817.4028335929172,2.0482000000000005,5.950454,12.304505,3.0,-1.0
TlVTeO5,mp-639714,33,-6.097219661875,5.945922403390666,-1.8303212464062493,517.1273229145677,2.3548,7.386667,8.819334,3.0,-1.0
PbWO4,mp-641365,15,-6.872440350833332,8.436680852482374,-1.988701115,179.12440325381687,2.9031,5.133550725691721,6.957604847989932,3.0,-1.0
PbWO4,mp-641415,14,-6.8892791425,8.737862844403148,-2.005539906666668,691.8009357914264,3.0298000000000003,7.180633,14.839474512483385,3.0,-1.0
FeBiO3,mp-645159,62,-6.240191225,8.410847926510135,-1.7673845057500004,247.0408754471377,1.5691999999999997,5.482234000002372,7.864368000003178,3.0,-1.0
As3Pb5ClO12,mp-645291,176,-5.794814360714287,6.96778825379217,-1.7594606861076192,709.3303500671892,3.0356,7.4819,10.4629226496792,3.0,-1.0
ZnBi6P2O15,mp-645375,5,-6.196168492083332,7.5646846154023155,-2.0665225244122016,711.7588535711274,2.8919,8.21370993318196,17.204584743698902,3.0,-1.0
HfTl8(MoO4)6,mp-645513,12,-6.447170075128205,6.195039822534821,-1.9693689951282047,743.332921451295,3.4478,8.005244553718331,10.884460556284681,1.0,1.0
VP2Pb2O9,mp-645799,14,-7.006103993928571,5.56789456310768,-2.444335340242347,800.8001371338237,2.2786,8.882837,9.992295066199006,3.0,-1.0
Nb2Ni4O9,mp-646749,60,-6.843551319833334,5.7326557461830365,-1.9850082519166656,654.1531756640028,2.4494,5.122533,14.490882000000001,3.0,-1.0
ZrPbO3,mp-647557,32,-7.854397996,7.596076936112935,-2.85492917475,605.8365142698349,2.8612,6.042341,11.956119000000001,3.0,-1.0
As3Pb5ClO9,mp-649619,173,-5.5508002066666675,6.43465617847638,-1.5504984977505554,743.3276582519815,2.0211,7.368592,10.792761074219424,3.0,-1.0
CuAs2Pb8Cl5O9,mp-653930,12,-5.0646064552,7.107997967820956,-1.5606518895020003,1024.2869490360736,1.5366,7.708581235699928,12.225134586174706,3.0,-1.0
ReHg2O5,mp-667291,2,-5.8008199871875,7.162983635179392,-1.5157930798437498,618.8578731248323,1.6555,8.182203,9.248035575437036,1.0,1.0
Bi12PbO20,mp-667342,197,-5.704220481212121,8.883944586060947,-1.6040275065151524,567.2770288993428,1.6946000000000003,9.032452703832057,9.032452703832057,3.0,-1.0
Ba8Zr3(SbO6)4,mp-667372,139,-7.086899455128205,6.268816930999685,-2.9995444617948723,594.2285302692744,2.9436,10.315008409864287,10.315008409864287,3.0,-1.0
RbCa2Ta3O10,mp-6680,123,-8.515572416875,6.062365851477021,-3.326714828750001,237.8797625030067,2.239,3.9414190000000002,15.312717999999998,3.0,-1.0
Sr3InRhO6,mp-669389,167,-6.191723558636364,6.03596606342515,-2.4955028156818178,317.2428204220284,1.8304,6.8214752933636,6.821475546920989,3.0,-1.0
HfPbO3,mp-669414,32,-8.277540435,9.909159441648258,-2.99617396975,581.4064880592096,2.7888,5.931433999999999,11.804147,3.0,-1.0
InCu(WO4)2,mp-672012,15,-6.747539334583332,7.617919842230528,-1.911667077083333,293.85145740574984,0.8197000000000001,5.083922074740033,7.6755190091434224,3.0,-1.0
Sr3ZnPtO6,mp-6730,167,-5.83920179090909,6.630266624023457,-2.396193800681817,310.2300202676229,2.6496,6.7718507889837625,6.7718508176841885,3.0,-1.0
MgNb2(PbO3)3,mp-673624,1,-7.1934428939999995,7.7522450307802275,-2.4499881900833334,208.99861718914426,2.1515000000000004,4.127125,9.210808726511424,3.0,-1.0
In4(SnO4)3,mp-673669,1,-5.91354555,6.9401716637176705,-2.0196804915789475,482.0683124122058,0.8795000000000002,6.309762,12.621280752313373,3.0,-1.0
TiPb9O11,mp-674350,75,-5.903816438095237,8.699629288013428,-1.7127861617658733,398.67241191979264,1.7973,4.734389,9.17648,2.0,1.0
Tl5SnF9,mp-674395,26,-4.221217987,7.362157633851278,-2.3143654563806666,591.669803451206,2.9278000000000004,7.223378,9.840766,1.0,1.0
TlBiF4,mp-674849,11,-4.535266871666667,7.951751050969538,-2.54628556746,204.38188525324074,3.8236,3.7782910000000003,8.552484068456485,3.0,-1.0
Zr2N2O,mp-674947,1,-9.797217348250001,5.5905659985652925,-2.3480151274519985,538.1165421175521,1.6647000000000003,8.855191281073163,8.888624916504446,3.0,-1.0
Hf2N2O,mp-675093,1,-10.556742556,10.396560465389703,-2.543745047201999,512.3726925203711,2.0539999999999994,8.711592,8.734442172330928,3.0,-1.0
TaAlO4,mp-675172,65,-8.775514985,7.08305043969182,-3.3445124291666666,63.750137245812304,1.8196000000000003,3.013948,4.5994346886173965,3.0,-1.0
Bi2Pb3F12,mp-675831,1,-4.815464975294118,7.543215033806912,-2.699899596722353,279.0325344925396,4.422700000000002,4.323931,17.256127573103242,3.0,-1.0
Zr2N2O,mp-675993,1,-9.79992024225,5.5895596291461525,-2.350718021451999,538.213427036553,1.6519,8.862853,8.87551191490012,3.0,-1.0
TaTlO3,mp-676262,15,-8.0882995935,9.246677428225857,-2.69701419025,622.5460937993314,0.9695,7.609433484307487,13.171096406478732,3.0,-1.0
Zr4CdO9,mp-676286,12,-8.632077394285714,5.734274545196812,-3.394600144375,359.83473438859437,2.484,6.112603783086388,16.884402216121305,3.0,-1.0
In4(SnO4)3,mp-676320,2,-5.913870365,6.936604880949348,-2.0200053065789474,482.3161905859486,0.8840000000000003,6.2946349999999995,12.675681643035414,3.0,-1.0
Ta4Cu2O11,mp-676563,15,-8.85028241,7.935946170711642,-2.83076217375,429.73306662360466,1.4002,6.2672147271930125,13.080209565979896,3.0,-1.0
Ba4Ta2TiZnO12,mp-676665,141,-7.8609610695,7.257434674253898,-3.286228077916667,556.6705867826716,2.2351,10.103422458700765,10.103422458700765,3.0,-1.0
MgTi3Nb2(PbO3)6,mp-677094,164,-7.375866221,7.998589437824393,-2.56962531975,391.31440972880546,2.0091,5.68833558321527,13.964479999999998,3.0,-1.0
V2Bi4O11,mp-677149,7,-6.490888323529411,7.099006588180143,-1.957578350808824,521.0602549321128,2.3001,5.6482790000000005,15.531499995446188,3.0,-1.0
Ba3LiTa3Ti5O21,mp-677212,36,-8.671182146818182,5.930844449998505,-3.462830535492425,860.7188270548106,2.2708000000000004,9.218356873724568,11.730458,3.0,-1.0
Ca2Bi10O17,mp-677291,1,-5.795126336896553,7.837150752826678,-1.8265795841810348,517.4014344579922,1.5488,7.764931,9.787495587451062,2.0,1.0
Co(Bi3O5)4,mp-677295,197,-5.745674597575758,8.82904551078493,-1.599370388787879,542.918808363741,1.2045000000000003,8.901275835920828,8.901275835920828,3.0,-1.0
Ba2NaReO6,mp-6798,225,-7.007507455,6.448879842653158,-2.7003960675833327,149.30637579544822,1.9174,5.9547625790469585,5.9547625790469585,3.0,-1.0
Bi17P5Pb5O43,mp-680322,8,-6.162321410428572,7.807633227137611,-1.9576947949515304,1155.1815982822134,2.4608000000000003,11.653417335405825,11.663271190169635,3.0,-1.0
Ta2O5,mp-684897,1,-9.701316908571428,8.00400371301178,-3.280762250892857,275.02992909716727,3.0717,6.9246843586715805,7.472921207184715,3.0,-1.0
HfO2,mp-685097,29,-10.150893435,10.374224523862056,-4.001386839166667,134.76665159031472,4.3858,5.040138,5.2692760000000005,3.0,-1.0
MgTiNb2(PbO3)4,mp-686836,1,-7.297353006500001,7.729336456112812,-2.522505203916667,549.4546932788953,2.3790000000000004,8.059597,9.98018348500818,3.0,-1.0
Ta2Mn4O9,mp-690508,9,-8.796866978666666,6.625848590854275,-2.6735356615807127,363.7142532112999,2.6399,5.70486330489925,13.418353096109858,3.0,-1.0
V2Bi4O11,mp-690540,1,-6.4423348482352925,6.554679819053877,-1.9090248755147063,282.1655889162729,2.4897,5.531564,7.925082390938594,3.0,-1.0
TiTlWO5F,mp-690560,46,-7.202645628333332,6.292805568978294,-2.59007352341926,282.39573093531794,2.8106,7.336440201747576,7.336440201747576,3.0,-1.0
V2Bi4O11,mp-690568,4,-6.467504499411764,6.449584767920767,-1.9341945266911773,573.5268727686464,2.7627999999999995,7.270200999999999,9.444977,3.0,-1.0
NaP3(PbO3)4,mp-690977,173,-6.552077989500001,6.108420073348535,-2.3844238042023806,618.0128858795242,3.2920000000000003,7.3250470000000005,9.87025202272956,3.0,-1.0
Bi14MoO24,mp-691119,1,-5.91216912025641,8.245113658921245,-1.7154743864102555,685.8870718773177,2.6379,8.932799000000003,10.620852404840678,3.0,-1.0
Sr2CoWO6,mp-694931,14,-6.8232727645,6.5863837006863974,-2.5538328060833324,259.18107777893147,1.5565000000000002,5.6788680000000005,9.823425740891668,3.0,-1.0
MgTi3Pb5WO15,mp-694933,129,-7.1092548472,8.409492649673915,-2.46357084915,642.8261468912972,1.8829,5.685071,19.889403,3.0,-1.0
Ti5ZnBi2(Pb2O9)2,mp-695325,8,-7.222880544333331,7.425541467998539,-2.5632192433055545,411.3574293457708,2.1174,6.0054389318118115,14.282972443993335,3.0,-1.0
Cr(Bi7O12)2,mp-698567,1,-5.8871990879487175,8.309567032610179,-1.6821606505128206,671.7854588834002,2.0176000000000003,8.894177,10.46863502679036,3.0,-1.0
FeBi25O39,mp-698573,146,-5.765458120769233,8.891818760260145,-1.6336302144423074,1102.6285564635195,2.1353,10.331058137047242,10.33105843599856,3.0,-1.0
PbWO4,mp-703260,1,-6.879494599999999,7.921940614496036,-1.9957553641666668,190.7632860032423,3.656,5.5579540000000005,7.278130708046057,3.0,-1.0
Bi14WO24,mp-705713,1,-5.943023677435898,8.484957645241021,-1.7131883425641026,683.701497557979,2.5461000000000005,8.919163000000003,10.636291088692008,3.0,-1.0
HgF,mp-706,139,-2.2961860825,8.970179704918127,-1.4340708330949998,81.29940181376568,1.9778,6.142321465604677,6.142321465604677,0.0,1.0
ReAgO4,mp-7094,88,-7.0968352225,6.606514419581356,-1.7202110452777777,180.00229328933392,2.322,7.04440245861308,7.04440245861308,3.0,-1.0
K2SrTa2O7,mp-7148,139,-7.9395229825000015,5.9579711627806615,-3.1607319251180566,178.29230150335826,2.133,11.403922446199285,11.403922446199285,3.0,-1.0
CsSr2Ta3O10,mp-7181,123,-8.50969141625,6.7693694257284704,-3.3656693877352732,247.99605608632453,2.1109,3.971811,15.720545999999999,3.0,-1.0
TlF,mp-720,57,-3.872862995,7.625370988532798,-1.981761438095,194.5788843507103,3.2635,5.2373910000000015,6.386389,2.0,1.0
Ti3(BiO3)4,mp-723064,7,-7.305562075263157,7.720548081959465,-2.558477921842105,503.9401524793817,2.4321,5.453901,16.892681043967535,3.0,-1.0
TaCrO4,mp-752403,60,-8.967110697916667,7.289769410751461,-2.8870295354166657,270.56169615499545,1.9512,4.500643000004112,11.950696000002427,3.0,-1.0
ScTlO3,mp-752429,62,-6.753180819000001,7.7030337220526865,-2.4669571207500005,256.387499472698,0.9279999999999996,5.518153,8.177845,3.0,-1.0
LiSiBiO4,mp-752501,62,-6.5429513846428575,5.5094733673513465,-2.513389517261904,371.3266011734828,3.0343000000000004,5.774587,9.058771,3.0,-1.0