pretty_formula,task_id,spacegroup.number,final_energy_per_atom,density,formation_energy_per_atom,volume,band_gap,min_abc,max_abc,Dimension,Dim
RbAlBr4,mp-1209467,62,-3.30201067125,3.0448913892936726,-1.4230413275,942.5116135068283,4.0947,7.669600999999999,12.233802,3.0,-1.0
Rb2Si2Se5,mp-1209497,15,-4.199931528055555,3.368539384060982,-0.8342366865798607,1226.2884144538582,2.3037,9.576900017826228,11.525593149305115,3.0,-1.0
RbMo3Cl7,mp-1209508,15,-5.357378449090909,3.2017043307820554,-1.5124311763927272,1289.2591058591445,2.577,9.520349895076755,12.487313473186175,3.0,-1.0
RbGaBr4,mp-1209533,62,-2.9813886925,3.208559579742025,-1.2219994033333337,982.9148823856024,3.2763,7.78295,12.303694,3.0,-1.0
RbFeBr4,mp-1209606,62,-3.64317351125,3.2017939328227856,-0.9767996591666672,956.2017985914164,1.0309,7.743136,12.191424000000001,3.0,-1.0
RbHgC3(NO)3,mp-1209656,62,-6.825095886136364,3.29777236849729,-0.8651895673536348,830.0412391144315,3.2942,4.198283,18.406069,3.0,-1.0
NbTlCl6,mp-1209881,15,-4.135655680625,3.4549063288333346,-1.6373976955699998,490.2521783807734,2.1687,6.971466333662094,12.513218743638465,0.0,1.0
NaAlBr4,mp-1210155,62,-3.25756146,2.9048634149588834,-1.3229057588888888,845.0850530099001,4.1505,7.6620339999999985,14.330153,3.0,-1.0
LiFeCl4,mp-1210931,14,-4.07427540375,2.1182858128856505,-1.5085537948122223,641.5432136334982,1.2353,6.763043,13.275109915906725,3.0,-1.0
Li6AsS5I,mp-1211176,9,-3.938198369615385,2.411796439037139,-1.2457662500480775,556.0343309747209,1.2963000000000002,7.3015857682701375,12.733741142614965,3.0,-1.0
Li7PS6,mp-1211324,33,-4.196566195892856,1.8030383311548508,-1.3670172580824824,1001.8308689053713,2.0802,7.173369999999999,14.168573,3.0,-1.0
KSbCl6,mp-1211377,15,-3.074291333125,2.5030363537636515,-1.4789780771950003,495.66842253259324,1.9967,6.974156915582628,12.444830647329194,3.0,-1.0
K2PbCl6,mp-1211440,14,-3.1675326655555565,2.9359880813341985,-1.672360351728889,563.4483043050749,1.4477,7.345606,12.702938903121787,3.0,-1.0
KSr2I5,mp-1211448,14,-3.1583374178125,4.234379432352019,-1.6446593517291668,1331.5446042977915,3.6493,9.158575,14.4299598029551,3.0,-1.0
K2Ti(CuS2)2,mp-1211474,132,-4.928177162777779,3.178635900751431,-1.3496590829814812,398.5077399150707,1.7253999999999996,5.54633,12.95464,3.0,-1.0
KPbI3,mp-1211504,62,-2.862647344,4.720582593913581,-0.9836305716000002,882.2448661426646,2.4304,4.7821169999999995,17.458123,3.0,-1.0
KRbGeO3,mp-1211560,62,-5.325886735208333,3.599575644410668,-2.08406052175,904.9318245733812,3.0027,5.685094,13.433491,3.0,-1.0
Mn2Tl2(MoO4)3,mp-1211724,198,-6.855320256973685,4.771595938504202,-1.9828500825647544,1389.8698622213903,2.7963,11.159842,11.159842,3.0,-1.0
KAgTeS3,mp-1211732,14,-3.6416131325,3.622430975159292,-0.7240755523402775,679.8351265910791,1.6991999999999998,6.382524,16.480079999999994,3.0,-1.0
KAlSe2,mp-1211743,15,-4.1086678921875,3.1740716705307546,-1.1467184591093753,937.4973762837483,2.4172,7.8051345928080575,15.635094842112633,3.0,-1.0
K3Ta2AsS11,mp-1211748,9,-5.371834860882354,3.363809600858748,-1.2595549172573537,895.3075652696951,1.8915,9.6629952498807,9.734032588453564,3.0,-1.0
KAlBr4,mp-1211750,13,-3.3126127079166667,2.84460261364085,-1.4119992184166663,900.6010256042192,4.2138,7.636653,13.422527540309913,3.0,-1.0
K4MnO4,mp-1211757,2,-4.926894021388889,2.6548289443411064,-1.7152146900127971,688.8493577092978,1.5403,7.1334154898921325,10.725590274131116,3.0,-1.0
KAgTeS3,mp-1211783,14,-3.6442960954166654,3.6212674702290415,-0.7267585152569443,680.0535560575707,1.8271,7.471389999999999,10.942719,3.0,-1.0
K4Zr6FeBr18,mp-1211812,2,-4.708877334137932,3.616674003736496,-1.4791366386896552,1009.1102372014597,1.3263,10.662175711295973,10.907686960044662,3.0,-1.0
K3Cr2(AsO4)3,mp-1211915,230,-6.174287732374999,4.030341445621217,-1.997456101325,1051.5219763706855,2.338,11.095496688676537,11.095496688676537,3.0,-1.0
K2TeMo2(PO7)2,mp-1211929,60,-6.6034463526190486,3.537171715511989,-2.305385725506803,1283.7042784955465,2.9762000000000004,8.866172,12.723335,3.0,-1.0
K2Hg3S4,mp-1211986,60,-2.7286901783333333,5.314457303151904,-0.8371570165000001,1010.1440409874568,2.0728,6.691028,13.95155,3.0,-1.0
K2ScSn(AsO4)3,mp-1212024,198,-6.311304468289473,3.6968435017218972,-2.2329792212368424,1183.3494444815594,2.5700000000000003,10.577207000000001,10.577207000000001,3.0,-1.0
InSn2Cl5,mp-1212110,14,-3.44901079125,3.906311621060712,-1.3190005007875003,900.3484644096542,2.6728,8.077943,12.585690884395973,3.0,-1.0
InCl2,mp-1212122,52,-3.1609185125,2.98658292949008,-1.4077899513399998,826.0998335187671,3.0239999999999996,7.702639,10.519133,0.0,1.0
In2(SeO4)3,mp-1212349,14,-5.321405210882354,4.078000613887324,-1.3838118274724271,1072.5644173530761,2.3121,9.066922,15.500870479434376,3.0,-1.0
CsSr2I5,mp-1213276,14,-3.1564187640625,4.404230524443204,-1.6696152698455458,1421.6664665424564,3.6758,9.326963000000001,14.728168781871695,3.0,-1.0
CsFeBr4,mp-1213351,62,-3.66451303625,3.375434515526887,-1.0123278009051724,1000.3599236135803,1.079,7.772597999999999,12.601964,3.0,-1.0
Fe2Te4BrClO10,mp-1213361,14,-5.361577019166667,4.772715297223425,-1.5063191478200002,1248.9626953742913,1.9088000000000005,6.69254816,14.497469554866136,3.0,-1.0
CsMo3Cl7,mp-1213536,159,-5.353176945681819,3.2849489967731107,-1.5159689184773664,1352.506466287513,2.5874,10.17182847551216,15.094220000000002,3.0,-1.0
CsW3Cl7,mp-1213572,159,-5.765354529545454,4.490250974115557,-1.3520146550682752,1379.533438713882,2.9615,10.234576161979207,15.207642000000002,3.0,-1.0
CsCuTeS3,mp-1213683,198,-3.89177372875,3.5922463298756875,-0.7989604666343387,777.0465462530092,1.811,9.193531,9.193531,3.0,-1.0
CsCaI3,mp-1213688,62,-3.1004842155000003,3.8778027101631998,-1.605876196086207,948.4085075592512,3.9934,8.6043,12.321577,3.0,-1.0
Cs4Rb2Fe2O5,mp-1213695,12,-4.442758333461539,4.45277035370591,-1.5008344306133958,666.9680472843214,1.8846,7.3137622952801795,12.382991000582454,3.0,-1.0
Cs3IO5,mp-1213723,52,-4.326817540555556,4.775726613170816,-1.5003123100047888,842.3028707135329,1.477,9.11595,9.704407000000002,3.0,-1.0
Cd(GaCl4)2,mp-1213982,7,-3.094497278181818,2.632819600418822,-1.5481437710072727,675.4637649921666,3.7505,6.9489259999999975,13.378699859025538,2.0,1.0
Ca3BCBr2N,mp-1214049,62,-5.3956632034375,3.2234545180584977,-1.252001031130833,652.9338947410828,2.2312,3.923793,14.547229999999999,3.0,-1.0
Ca3SbI3,mp-1214080,214,-3.5404685692857143,3.9014610547003685,-1.43792018,1060.1464086081637,1.6894000000000005,11.125748688081536,11.125748688081536,3.0,-1.0
Ca3AsI3,mp-1214087,214,-3.7032727135714287,3.888058973002576,-1.5249933007142855,983.7844487330847,1.9928,10.85193743616701,10.85193743616701,3.0,-1.0
Ca(AlH4)2,mp-1214193,147,-3.483924447979798,1.179870469389262,-0.26441128152161625,1293.3098101526232,4.7401,5.923392,15.878180653102673,3.0,-1.0
CCl3,mp-1214207,62,-3.816494265,1.8850143421322216,-0.5694108574449999,834.1899868173407,4.7139,6.649382000000001,11.889427,0.0,1.0
BaNbI5O16,mp-1214520,9,-5.229258901086957,4.849719500779166,-1.4218247078260868,767.4846894987486,2.9097,8.119978642144387,15.274538172500696,3.0,-1.0
BaCa2WN4,mp-1214597,61,-7.561126615625,5.3204837271410215,-1.223853389315,1141.9220491213312,2.5783000000000005,9.452556,11.729395,3.0,-1.0
Ba2Sr5B4S13,mp-1214648,15,-5.328226164375,3.349006458345273,-1.821901861067708,1163.0623259237425,2.5482,9.907230122463293,12.828495061213145,3.0,-1.0
AlInBr4,mp-1214853,13,-3.1998523904166665,3.4508816189326,-1.0256914370833332,888.1191676677391,3.5593,7.555522,13.31984671192882,0.0,1.0
AlSNCl3,mp-1214856,14,-4.485474461666667,1.85410317246855,-1.3300426592141672,642.7280545015386,2.4379,7.398322,10.026734,0.0,1.0
Al2CdBr8,mp-1214910,7,-3.019932399545455,3.3617525085696727,-1.0645275140909094,795.858921839636,2.9212,7.427625999999999,14.063418054121726,2.0,1.0
AsSe(BrF2)3,mp-1214921,14,-3.6326070686363634,3.3883157356445537,-1.6699606772257949,995.0230842971988,2.5742000000000003,8.059515,12.453373139863631,0.0,1.0
AgMo6Cl13,mp-1214988,2,-5.4810199425,3.6878801037201137,-1.2706960984523328,1030.5737740176137,2.2960000000000003,9.105344,14.183364350385773,3.0,-1.0
Cd3Fe2(GeO4)3,mp-1215138,230,-5.834562540625,5.837963073897541,-1.881575329125,977.1424585202462,1.9028000000000005,10.827460094154446,10.827460094154446,3.0,-1.0
ZnCoTe3O8,mp-1215732,5,-5.410805425192309,5.277297210318372,-1.5731678909615392,799.4019779624492,2.932,5.3032630002301415,12.84966952540761,3.0,-1.0
Y12Si5S28,mp-1216324,1,-6.486096,3.6535390208621834,-1.9979195615000005,956.7792106997175,1.7476000000000005,9.825928,11.367239774436223,3.0,-1.0
Y9Al(GeS7)3,mp-1216346,146,-6.3109567407352944,3.8894330922423,-1.936083604871323,1467.310082364882,2.0490000000000004,11.430097127863787,11.430097681992269,3.0,-1.0
Y9Al5S21,mp-1216384,146,-6.394108425142857,3.5967211864134963,-2.112425385875,1485.1599439234105,2.3805,11.442019396714244,11.44201975767504,3.0,-1.0
TlGeSbO5,mp-1216957,33,-5.8905260971875,6.301229938235768,-1.8477749198437496,1009.3691552428104,2.5603,6.774406,13.605406,3.0,-1.0
Tl2Mo2P2O11,mp-1217035,4,-6.7676958073529425,5.2632228052616785,-2.245255577993698,1058.2925297962047,2.2966999999999995,10.137838,10.386816,3.0,-1.0
BaSnS2,mp-12181,14,-4.841106421875,4.3333035843539855,-1.6224758171875,490.7570411228237,1.9963,6.189139,12.518213000000001,3.0,-1.0
SeS7,mp-1219328,1,-4.030316131666667,1.9867897345312169,-0.5544610634440102,760.7737026253333,1.9009,5.088822,15.561232866032212,0.0,1.0
Sb3Cl9OF4,mp-1219529,2,-3.62721481,2.654922683859657,-1.6507719561970589,971.1465674289723,2.2573,7.218145,13.761955549374298,0.0,1.0
Sb4Cl13F7,mp-1219579,1,-3.466095295833333,2.5239195742051823,-1.6844320210712502,711.1582675706462,1.5991,7.85418,10.280701273519671,0.0,1.0
RbOsNO3,mp-1219620,19,-6.8497005237499975,4.524962350654722,-1.366811004355,495.7111089909171,2.8418,5.8395209999999995,14.221573999999999,3.0,-1.0
RbBa3Ga5(Se5Cl)2,mp-1219635,1,-4.147374521428572,4.5691458649368295,-1.3214344830932143,620.2090952110428,2.2254,8.815354,10.093879819864364,3.0,-1.0
RbNb4Ag(PS10)2,mp-1219639,1,-5.558132620714285,2.9764049577168348,-1.111536931564626,707.5349934213448,1.4534000000000002,7.407783,13.038145166253905,3.0,-1.0
Rb2SbN2(O2F)3,mp-1220150,4,-5.5537525325,3.119815256077356,-1.8587056057735711,1008.5191635379724,2.603,7.823161,11.716437618857706,3.0,-1.0
Na5NiCO5,mp-1220779,25,-4.987288243958333,2.3740339924111145,-1.6002460933680556,743.2448152764384,1.6579,6.620138338060089,17.602801645702023,3.0,-1.0
Na6Al3Fe3(TeO6)4,mp-1220862,220,-5.889948927625,4.3341485881406605,-2.1198283176249992,981.4268041677389,2.3591,10.843261593671896,10.843261593671896,3.0,-1.0
Na2Zn11(MoO4)12,mp-1221398,1,-6.220878175342466,4.018769116588043,-2.0009584081735157,1109.3194171668747,3.3386,9.845459,11.44089603954297,3.0,-1.0
Mn3Zn(IO3)8,mp-1222014,1,-4.974751853333333,4.6357914763297785,-1.1472411661623747,583.6665118824528,2.5881,5.309782,11.255801447007537,3.0,-1.0
MgAg2(PS3)2,mp-1222065,15,-4.344899797272728,3.430890935917468,-0.8058177081114725,478.5552979323388,2.205,6.372684103509682,13.705457792773831,3.0,-1.0
Li4GeS4,mp-1222529,19,-4.255248853055557,2.2160788303773185,-1.3496178764814817,685.3646177566206,2.5081,6.191282,14.1679,3.0,-1.0
Li4GeS4,mp-1222582,33,-4.230627036666666,2.223494959858037,-1.3249960600925923,683.0786882454014,2.5005999999999995,6.45861,13.441153,3.0,-1.0
SnTe3O8,mp-12231,206,-5.612417366458334,5.586210264297487,-1.6620175002083333,748.4988410899376,2.9251,9.906897606592088,9.906897606592088,3.0,-1.0
KNb4Ag(PS10)2,mp-1223407,1,-5.554548386785713,2.9797147830170765,-1.1033146664039128,680.9082223213247,1.3538,7.243794999999999,13.084138457464366,3.0,-1.0
KGaGeS4,mp-1223528,4,-4.374004635357143,2.667795305423528,-1.1377929536428568,771.1301048661072,2.3772,6.998641,16.276182000000002,3.0,-1.0
KBa3Ga5(Se5Cl)2,mp-1223536,1,-4.1509078242857145,4.503563438076516,-1.3187837443075,612.1435823958302,2.22,8.781108999999999,10.048640365101392,3.0,-1.0
KNa2WN3,mp-1223632,29,-6.411382556607142,4.291152455702422,-0.617775926150952,962.5844797582387,2.0295,6.309605,12.521772,3.0,-1.0
K3Rb3Zn4Sn3Se13,mp-1223703,160,-3.4649976369230764,3.3841677378926867,-0.8193307802680285,990.1623098798796,1.4283,10.014699447127958,10.014699543011412,3.0,-1.0
K2Ag3Sb3S7,mp-1223709,36,-3.9166085560000004,4.090203384845975,-0.7555153098583333,805.0869069974683,1.7062,6.920453999999999,13.487327151550822,3.0,-1.0
K6Pd3(BrCl2)4,mp-1223762,38,-3.382461384761905,2.8112733172407305,-1.5357683806704765,683.4599840154392,1.2605,4.273496,16.48574398553602,3.0,-1.0
K2Na(SbO3)3,mp-1223796,34,-5.6590931485,4.54088206761519,-2.0501969452055557,892.9492314750389,1.9111,9.628746000000001,9.630628999999999,3.0,-1.0
K6Zn4Sn5S17,mp-1223803,5,-3.996191348125,2.804098022876617,-1.1590021251914069,968.1485509730037,1.9285,11.02569872755269,11.072564272252837,3.0,-1.0
HgBrCl,mp-1224010,62,-1.7892637091666668,4.8299491634112455,-0.7244444152533335,434.4909801117089,2.4995000000000003,4.662116999999999,13.468005999999999,0.0,1.0
HgBrCl,mp-1224070,19,-1.7969751275,4.837992216190537,-0.7321558335866666,433.7686486715157,2.5964,4.291012,13.595347,0.0,1.0
K3TaNbCu3S8,mp-1224225,5,-5.3807381684375,3.3442434383484105,-1.2949995149375004,832.5002737707222,1.9869999999999999,12.246068740457892,14.48548198465077,3.0,-1.0
K10Zn4Sn4S17,mp-1224229,160,-3.8747786511428575,2.7011865578554635,-1.2684335349464289,1028.1992020550306,2.4829000000000003,10.093441959221344,10.093442064033956,3.0,-1.0
InSnCl3,mp-1224255,42,-3.34891410675,4.044113454958427,-1.244352403706,1116.4783540629448,1.6489999999999996,11.431990590316367,11.978611422255295,3.0,-1.0
K4PdPt(NO2)8,mp-1224512,14,-6.093351515499999,2.8258777905509422,-1.1852578385346666,970.6772415286156,2.2230000000000003,7.907305,12.958414,3.0,-1.0
Fe2Te4BrClO10,mp-1225925,14,-5.355645750555556,4.792397235120295,-1.5003878792088885,1243.8333196151787,2.0494000000000003,6.68430905,14.492279174503105,2.0,1.0
CsBa3Ga5(Se5Cl)2,mp-1225999,1,-4.1445319566666665,4.616366075562143,-1.3226458088280255,630.9287108762921,2.2023,8.854776,10.144645787206272,3.0,-1.0
CsNa5(FeO3)2,mp-1226173,43,-4.929716756607143,3.427210332903164,-1.7570980403284069,882.8674665118871,2.2614,9.317876990892776,12.128878608695242,3.0,-1.0
Cs3Ge2Sb3O13,mp-1226537,63,-5.85274554952381,4.604139808114644,-2.0664161380972907,805.9130095718463,1.7859,7.418348117438545,16.900953,3.0,-1.0
Ca6Br2N3Cl,mp-1227023,164,-4.9746456375,3.260421299348064,-1.6064189791999999,243.31856890445974,2.4139000000000004,3.700767912087571,20.514499,3.0,-1.0
Cd5Ge(PO6)2,mp-1227196,19,-5.617910919624999,5.381813331824174,-2.067309219482143,1096.740879314435,1.8832,6.885696,15.315134,3.0,-1.0
BaNaVS4,mp-1227892,14,-5.428145477857144,3.098167206492576,-1.683932822976191,727.8927344946184,1.5013999999999998,6.534974,12.27311208149278,3.0,-1.0
Cs3Re6(SCl)7,mp-1227999,4,-6.202721709130435,4.814245694131081,-1.4009279642820909,1371.8128320268195,2.3721,9.464210000000001,13.287602,3.0,-1.0
Ba4SiGeS8,mp-1228229,26,-5.142023585357143,3.8843680937280953,-1.8914418617857152,775.0900359539087,2.4345,6.86025,12.465452,3.0,-1.0
Ba4SnGe2(S4Br)2,mp-1228355,31,-4.721615428529411,3.9849900887377023,-1.6634223167647055,1024.7664184047553,2.0212,9.107169,12.108653,3.0,-1.0
Ba7Sr5(MoN4)4,mp-1228681,4,-7.10299720375,5.092334088212652,-1.087299416294167,1309.0764584713056,2.0735,10.087397,12.110851874483645,3.0,-1.0
Ba4Ge2Pb(Se4Br)2,mp-1228759,31,-4.342064588235295,5.013438726364024,-1.2905509999264708,1121.6855743145352,1.3949,9.197445,12.629176,3.0,-1.0
Al8Zn3CdS16,mp-1229020,160,-4.593372629999998,3.2853076126279412,-1.3707095907142854,524.4134838155487,2.4843,12.437786161730273,12.43778658342058,3.0,-1.0
Al3Tl4Fe(As2O7)4,mp-1229069,1,-6.099148643181818,5.1171451696071415,-1.9497867646590896,649.5547345741428,2.8428000000000004,6.407877299635864,16.409769899994746,3.0,-1.0
Tl2Ge2S5,mp-12307,15,-4.2550589925,4.5096154561965145,-0.7734688809027782,1052.1890049312938,2.0942,9.043679090511617,10.939245811990926,2.0,1.0
Y2MgSe4,mp-1232199,62,-5.7035432521428575,4.5811467454337516,-1.629704939672619,750.9799471187042,1.5879,4.023115,14.147454999999999,3.0,-1.0
Mg(InS2)2,mp-1232207,2,-4.175418949642856,3.674542091119687,-1.1760465242857143,690.8721424934844,1.5106999999999997,6.844757,12.973158274937491,2.0,1.0
GaHg3AsSCl4,mp-1238685,186,-2.6821734805,5.0239317669754815,-0.9735086028665,608.3602347106793,2.6584,7.518125909195255,12.428279,2.0,1.0
Cs4PbI6,mp-1238804,167,-2.821100241363636,4.171106249454756,-1.3267064006112852,1194.5135447309626,3.4095,10.611326056477813,10.611326296333788,3.0,-1.0
Y5(SiN3)3,mp-1245467,64,-8.653626156764705,4.952323828071618,-1.5841821970443144,878.2926855226407,2.1351,7.552938621410345,15.422438,3.0,-1.0
Mg2Si5N8,mp-1246296,61,-7.517112645916669,2.967301920017256,-1.2539854658526661,1347.95460019157,3.2673000000000005,9.59685038,13.39396346,3.0,-1.0
Sr(VN2)2,mp-1246716,205,-8.486711973095238,4.143917785799588,-1.1056859525504754,1180.6561210600314,1.6077,10.56917627,10.56917627,3.0,-1.0
Ca5(TiN3)2,mp-1247343,15,-6.998200244230769,2.9826122330416904,-1.3417528166112815,423.30511410727655,1.7921999999999998,6.106575788292616,12.896188196608975,3.0,-1.0
Ca5VN5,mp-1247440,57,-6.604394642727272,3.115263133531953,-1.2521886056272729,685.1930180714995,1.7915000000000003,6.04191972,16.65470935,3.0,-1.0
Ca5(GeN3)2,mp-1247566,15,-6.075601845384616,3.557868487216605,-0.9226104426369232,401.1112704026476,1.9629,5.959815054152013,13.109174139221661,3.0,-1.0
SiSe2,mp-1250007,14,-4.582422799583333,3.267144190967924,-0.4433771411458333,756.3042983075949,2.468,6.355102155438013,17.53294281,2.0,1.0
ZnS,mp-13456,160,-3.497306338,3.995935892166152,-1.1309395995625002,202.5300071693921,2.0983,15.910434996809013,15.910435487419225,3.0,-1.0
Cd3(AsO4)2,mp-13602,14,-5.2179034769230785,5.23836515012896,-1.6754242584615386,779.8998803458452,1.6653000000000002,6.7309449999999975,12.341304,3.0,-1.0
Ti(PS3)2,mp-13666,43,-5.422430742222222,2.0083308423668016,-1.0268748599140214,499.7407873434473,1.452,7.054024965060019,12.096130112868373,3.0,-1.0
Na5FeO4,mp-13745,61,-4.62066380475,2.71951001923119,-1.691371220916667,1146.9135733824278,2.1701,6.025206,18.152264000000002,3.0,-1.0
K9Ni2O7,mp-13749,198,-3.875445937361111,2.883748767697042,-1.267361372680555,1338.8365458173014,2.1161,11.02154605,11.02154605,3.0,-1.0
Rb2Te,mp-1397,62,-2.6793552566666663,3.4435772176667125,-0.9778988983333332,575.8314627331238,1.6993000000000005,5.623222,11.097539999999999,3.0,-1.0
AgMoPO6,mp-14029,14,-6.588622611805558,4.546519985628444,-2.0292361998875665,966.4893487294923,2.1575,6.435992,13.598607718463864,3.0,-1.0
K2Pd(NO2)4,mp-14131,14,-6.064527684500001,2.4816069437884907,-1.1861348708679995,986.6813087204248,2.074,7.9163289999999975,12.938217999999999,3.0,-1.0
Ga2Sn2S5,mp-14280,33,-4.445832341388889,3.9798255598898034,-0.9524674470138892,896.5484826431633,1.6994000000000002,6.3980760000000005,12.709268,3.0,-1.0
KGeSbO5,mp-14352,33,-5.9941377125,4.213675586875311,-2.1077932892812505,988.3460311314967,2.2581,6.7051300000000005,13.467214000000002,3.0,-1.0
Ca(AlS2)2,mp-14422,70,-5.129668392857143,2.37208006204666,-1.7884239632142862,1244.9482768953906,3.5321,11.759705480646868,14.32597877554759,3.0,-1.0
Ca(GaS2)2,mp-14423,70,-4.6330470183928565,3.235098458480485,-1.4967969680357147,1263.8560776650252,2.8466000000000005,11.839700681301787,14.377004889086775,3.0,-1.0
Sr(GaS2)2,mp-14425,70,-4.642087466964285,3.4701402932099503,-1.5509972204166669,1360.2509513133705,2.8975,12.074380464850073,14.847544754116518,3.0,-1.0
Hf(PS3)2,mp-14444,43,-5.749454432222223,2.742926925920915,-1.1248211239880963,524.0584471352204,2.3279,7.1391067056029485,12.37112278748348,3.0,-1.0
Na5InO4,mp-14493,61,-4.326419795125,3.0919973698526366,-1.695659126291666,1262.1157944867734,1.7202000000000002,10.695863000000001,10.895294999999999,3.0,-1.0
K3P6N11,mp-14565,213,-6.987610207,2.6273395890369726,-0.8232049033304278,1155.8719184378538,3.9959,10.494697,10.494697,3.0,-1.0