pretty_formula,task_id,spacegroup.number,final_energy_per_atom,density,formation_energy_per_atom,volume,band_gap,min_abc,max_abc,Dimension,Dim
Cs3AsSe4,mp-1201774,62,-3.5071742065625,3.9958948690232217,-0.8410527775835129,1312.3057844410325,1.5643000000000002,10.256008999999999,12.296142999999999,3.0,-1.0
Si(H3C)2,mp-1201793,2,-5.1028979404444454,0.8883431517975623,-0.28986511952444405,2174.112230724068,3.8705,9.953195904636543,16.973927189006673,0.0,1.0
Cs13Nb2(In3As5)2,mp-1201827,2,-3.4971205751612904,4.430405473767716,-0.4344067897775307,1256.2374934291706,0.0,9.922238,14.263858296492884,3.0,-1.0
Cs3GaP2,mp-1201960,14,-3.156277602083333,3.6850353878333815,-0.39946521182266,1912.0101523296341,0.9444999999999996,8.856182,19.288281469867783,3.0,-1.0
Ti21Mn25,mp-1202079,167,-8.838724271630435,6.3798289933737395,-0.25507222579085465,1238.2321678999326,0.0,13.702437074975018,13.702437437173176,3.0,-1.0
RbNa8(GaP2)3,mp-1202177,62,-3.3695101304166664,2.5139131263560577,-0.4216349369775128,1755.4433946141996,0.904,4.742666000000002,22.450695,3.0,-1.0
Cu3P4(SBr)3,mp-1202203,62,-4.2050501855769244,3.457572799401172,-0.4142415181662095,1249.525228070098,1.5515,6.657952000000001,18.886768,3.0,-1.0
Cs8Ga11Cl,mp-1202213,167,-2.4569544505,4.0487646718129815,-0.3706484264604139,1530.335458711471,0.9259999999999996,18.075326468734,18.07532674559196,3.0,-1.0
K(IO3)2,mp-1202272,29,-4.275218842777779,4.024869291618583,-0.9827280661666664,1283.598826342489,0.2619999999999998,7.484714,20.001885,3.0,-1.0
InSi2H19C7Br2,mp-1202311,2,-4.962883018064517,1.6199448579369196,-0.3493789433477418,1779.5957565899325,3.1192,9.885653,14.613885570993155,1.0,1.0
Si4H36C13,mp-1202323,198,-5.183150413584905,0.8742099155737055,-0.3099442817041507,2315.5876000149083,5.018,13.229814000000001,13.229814000000001,0.0,1.0
CsRe3(Se2Br)2,mp-1202357,14,-6.2889644935,6.402062107076759,-0.7403162017306031,1210.946562217819,1.4435000000000002,6.682572,19.347242,3.0,-1.0
Si4Bi2AsH38(C7Cl)2,mp-1202405,2,-5.065200525,1.6267472639166531,-0.32859285301770463,1801.830917614409,2.3631,9.848103,14.380381367285292,0.0,1.0
K3Mg18Pb11,mp-1202432,176,-2.3467775153125,5.221309550638691,-0.06629765559375,1802.5909381407366,0.0,12.10302018835088,14.209508,3.0,-1.0
BaZnRu5O11,mp-1202499,176,-6.9826476220833325,6.90275740124438,-1.6352596847916676,1701.4051589431647,0.0,11.86931944085355,13.945223,3.0,-1.0
Rb7NaSi8,mp-1202504,205,-3.2745282240625,2.4623219276454686,-0.05072179380208342,2281.960453252739,1.6841,13.165460000000001,13.165460000000001,3.0,-1.0
Na4Ga8Ge15,mp-1202531,223,-3.6433777924074073,4.513227148454975,0.016947789506172883,1279.9032863953046,0.0,10.857397,10.857397,3.0,-1.0
Cs4Os2Cl10O,mp-1202549,61,-4.187072930588236,3.9408521580370217,-1.6682227173867141,2161.7923556307073,0.8307,12.002125,14.209228,3.0,-1.0
PH11(C2Cl)2,mp-1202609,61,-4.898148347569443,1.126705168292269,-0.4278586870089687,1898.3722798444323,3.9324,10.817841,13.754082999999998,0.0,1.0
LiCa7(GeH)3,mp-1202682,62,-3.408921028571428,2.8538210441520286,-0.5848913445852375,1183.3527417614725,0.7166999999999999,8.740827000000001,13.731538,3.0,-1.0
Cs2TeS3,mp-1202720,14,-3.632839740625,3.334344232256493,-1.0739938614978446,1950.6317857234628,2.4192,10.284824,17.644845338372253,3.0,-1.0
Cs3HgBr5,mp-1202741,62,-2.6207760233333333,4.151102089573812,-1.3791626698659003,1598.2167131522824,2.484,9.625380999999999,14.539411999999999,3.0,-1.0
Si10(H3C)19,mp-1202794,5,-5.099972204825582,0.9219947723711912,-0.2833796094923253,2040.6047324424896,3.2821,10.094631846037974,22.86568193903225,0.0,1.0
VCu13As3S16,mp-1202812,218,-4.602716157272726,4.475531132608926,-0.6051771916666674,1198.2989134356412,0.0,10.621561999999999,10.621561999999999,3.0,-1.0
Ba2GaBiTe5,mp-1202829,62,-3.8957445855555566,5.8583440403526055,-0.9543472386111108,1350.754063849027,1.0651999999999997,9.802238000000001,13.711926,3.0,-1.0
TaBr5,mp-1203015,12,-4.283450050555556,4.098239815896005,-0.9430483288888896,1411.175970582986,2.0349,6.791952784691088,14.440052490154633,0.0,1.0
Ba3Al3As5,mp-1203016,167,-4.550159304393941,4.306493116594109,-0.8875018493939396,2007.0717704023168,1.2935999999999996,13.346859404109304,13.346859561805728,3.0,-1.0
Co9Te5(PbO5)6,mp-1203045,182,-5.790931774600001,7.2106515158871245,-1.5415075488500003,1331.8027635441722,1.3596000000000004,10.547882200813438,13.82225,3.0,-1.0
Cs3Hf2CuTe10,mp-1203208,2,-4.3593521728125,5.380638039877911,-0.7260521236745685,1293.2413441859433,1.1315,10.214243,11.483031443041035,3.0,-1.0
InH12C4Se2I3,mp-1203230,14,-4.392938060113637,2.474609389226889,-0.2975059116194323,1915.3620459354465,2.3882,8.538069,25.579049907918712,0.0,1.0
Ba2InSbTe5,mp-1203298,62,-3.869911868055555,5.647204042757868,-0.9326750591666664,1351.7093543196236,0.7145999999999995,4.647213,20.674566,3.0,-1.0
Co(W3Cl7)2,mp-1203320,201,-5.977624645238096,5.277949975334352,-1.100910821935238,2086.9444984532684,0.5748999999999997,12.779199,12.779199,3.0,-1.0
Ga2Hg3Cl8,mp-1203326,14,-2.5641232851923075,3.960821937258483,-1.2565817533523076,1718.6199066472052,2.5314,7.409572,15.728741000000001,0.0,1.0
Sr5Pb4,mp-1203353,62,-3.099339838055557,6.110500176214383,-0.5106737773148152,1377.1291271143446,0.0,8.615907,17.707516000000005,3.0,-1.0
Zn3As2,mp-1203368,110,-2.7652681905,5.387709499755874,-0.1457746625000002,1706.5896724004565,0.14639999999999986,14.656232890479705,14.656232890479705,3.0,-1.0
Sc5(CoSn3)6,mp-1203372,142,-5.366894237586207,7.371738488291912,-0.3157030070689659,2446.4390050438283,0.007099999999999441,13.52167857,16.445557562708,3.0,-1.0
In2Te9RuCl8,mp-1203469,15,-3.4471116097500003,4.382146751035831,-0.7921979448040002,1335.9123713398815,1.3095,10.47463956473243,12.110055989726384,1.0,1.0
Cd4As2Br3,mp-1203526,205,-2.4991276019444446,5.159376433040544,-0.5079525497222224,2160.7619825300944,0.9704,12.928128,12.928128,3.0,-1.0
K4Ag18Te11,mp-1203532,225,-3.0232479095454545,6.7615520508079205,-0.2958565738484848,1719.8945127174984,0.0,13.448451143464887,13.448451143464887,3.0,-1.0
TiP2(S4Cl)2,mp-1203568,14,-4.825656517307691,1.924889590115913,-1.0553730843843223,1508.7721920901095,1.8405,7.1783800000000015,17.5630723486049,0.0,1.0
TcI4,mp-1203591,14,-3.283529334,4.778420054176908,0.0078047400000002655,1683.6563345533611,0.0,7.004060000000001,16.865088624665805,1.0,1.0
Cs4Zr6BBr17,mp-1203593,113,-4.74898908625,4.156260029663905,-1.5570263641389581,1956.2010387701728,1.0312,11.820461,12.8644,3.0,-1.0
Y6Al43Cr4,mp-1203616,193,-4.7711102648113215,3.4972096091941784,-0.2716616374528307,1805.853266470064,0.0,10.918247884975683,17.49226,3.0,-1.0
Cs2BaTa6(Br5O)3,mp-1203665,15,-5.7159394096296285,5.634141032332141,-1.562334377763409,1612.3880977996191,0.2978000000000001,9.98310075647266,18.7471047665978,3.0,-1.0
CuAs7PS7Cl,mp-1203697,14,-4.490693033676472,3.1409123623555213,-0.5088635388944963,1858.5846185397838,1.8362,9.694321,14.063424849198327,1.0,1.0
Si,mp-1203790,194,-5.367055274411763,1.980655069966168,0.0582587455882358,1601.1474208852442,1.3630000000000004,10.41140729231476,17.056181,3.0,-1.0
Ga31Mo6,mp-1203833,2,-4.431719722297297,6.901399378097166,-0.13591380993243224,1317.1193796664058,0.0,9.583884,14.579352131435295,3.0,-1.0
Pb8Cl4O7,mp-1203866,15,-4.844243216184211,7.546510143144211,-1.4528622294363165,1682.3497292917132,0.0,13.670083385565903,22.0975523085115,2.0,1.0
InHg6Sb4Br7,mp-1203885,205,-2.2029867601388893,6.563186402367277,-0.3947502790277777,2393.1789616022,1.0803,13.375963,13.375963,3.0,-1.0
Hg2ClO6,mp-1203944,14,-3.5183091098611112,5.890712041536814,-0.4810641632788888,1201.1477328828662,0.10470000000000004,7.388188,14.652319,1.0,1.0
CoP3H33C11I,mp-1203987,14,-5.039374915969388,1.278175649940858,-0.27859766046274,2308.0070856221664,1.8674,9.42183135276082,16.83083137,0.0,1.0
Sr3Al2,mp-1204001,198,-2.580205672166667,2.8643729323203324,-0.0682865881666667,2204.0304498961486,0.0,13.013852,13.013852,3.0,-1.0
CsSb,mp-1204039,14,-2.94885424875,4.297238219029121,-0.4366524427155172,1574.5254425809708,0.5215999999999998,7.543365,15.626126740878368,3.0,-1.0
K4As2Se5,mp-1204061,14,-3.6563641940909086,3.0850583833976186,-0.8164196498835227,1509.3371789309035,1.2066,7.7889300000000015,23.287769,3.0,-1.0
Li22Ge5,mp-1204063,216,-2.6700269855555554,2.041483964071141,-0.2584920840123454,1678.53471418641,0.0,13.339773073837199,13.339773073837199,3.0,-1.0
K3Mg18Sn11,mp-1204087,176,-2.55212336125,3.607325892273437,-0.16957560668749982,1712.953368135849,0.0,11.91319294209575,13.936656,3.0,-1.0
Rb4Te8O23,mp-1204243,33,-5.269830126142859,5.127154942133546,-1.649291568678572,2242.042033864893,1.2387,7.431061,20.191346,3.0,-1.0
Y3Ir2,mp-1204272,140,-8.185995497428571,9.375235951684328,-0.7707406614285706,1614.6448256601386,0.0,14.95423559913632,14.95423559913632,3.0,-1.0
Cs2K2Pd2N8O25,mp-1204303,15,-5.862745015641028,2.5349688670318167,-1.1413916700551816,1400.3541867431425,0.19900000000000007,7.882265201385323,22.606252866788605,3.0,-1.0
PH18PtC6S3BrF6,mp-1204443,14,-4.952704850972221,2.1233590478228126,-0.9043900004235113,1896.758829131499,3.0185,8.721959,25.031113,0.0,1.0
CsMnInTe3,mp-1204512,15,-4.253336829375,4.60183268031809,-0.5468876023060343,1978.7518118522935,1.2444000000000002,9.03929675071341,24.42782479788753,3.0,-1.0
NO3,mp-1204579,14,-5.78374100796875,1.5697754329511733,-0.6113738595012501,1049.4398789468519,0.0041999999999999815,6.661257000000001,16.916281144363378,0.0,1.0
Ba5(GaSe4)2,mp-1204617,64,-4.48901488,5.145584641561135,-1.5811257482499999,1881.7446481894565,1.8701,12.429412,13.511069374965885,3.0,-1.0
K2Mo15Se19,mp-1204618,167,-7.027847368611113,6.035687170922158,-0.6020762180703128,1660.3701508372822,0.0,9.901428551503614,20.374346701136588,3.0,-1.0
K8Tl10Zn,mp-1204657,126,-1.912824637894737,5.16889311519108,-0.13601069126315748,1556.1833796851556,0.10639999999999984,10.478305,14.173551999999999,3.0,-1.0
Ni9Te5(PbO5)6,mp-1204674,182,-5.372324540299998,7.414917078686749,-1.4141729152499989,1294.1477446883907,1.9839,10.43912933020882,13.712753,3.0,-1.0
K7(FeS2)5,mp-1204678,15,-4.923226430227274,2.5464717613031205,-1.0662852621477272,1139.290587654415,0.0,7.299432857855465,14.983693216106133,3.0,-1.0
Ba6Sn7S20,mp-1204773,15,-4.749611277878788,4.0153070729483975,-1.445349905075758,1899.2235825078344,1.4569000000000003,12.857131013083944,23.502351753696303,3.0,-1.0
V2Pb14Cl4O17,mp-1204784,15,-5.632638637027028,7.433188232279705,-1.7414876101159462,1526.453065242814,2.3284,11.51694464178664,13.285788404528878,2.0,1.0
Tc2Te5,mp-1204799,61,-5.476743081785715,6.602941350816122,-0.271351014642857,2516.859395771967,0.5259999999999998,13.149326,14.461820000000001,3.0,-1.0
As9Pb5S18,mp-1204830,2,-4.42353383046875,4.889205773325634,-0.5794988742578129,1553.800014055471,0.0,7.915196000000001,23.212836924617616,2.0,1.0
Sc4FeBr5,mp-1204900,134,-5.480553636625,4.1679587135735146,-1.282102436625,2024.5029035050336,0.5478000000000001,11.16893,16.229131,3.0,-1.0
ZnP14Pb,mp-1204907,62,-5.02531988453125,2.704338597575168,0.022079661718750643,1734.6080571808286,1.2403999999999995,9.711925,14.903369,3.0,-1.0
Ba7Ge6,mp-1204965,62,-3.6764712284615375,4.986996576276802,-0.5094740792307693,1860.8292587293893,0.0,8.201472,24.94644,3.0,-1.0
Mg19Al4Zn15,mp-1204993,63,-1.7361272369736842,3.711738074712237,-0.0444488574999997,1387.6287492392069,0.0,8.699688187486089,19.516761,3.0,-1.0
Zr(TlSe)4,mp-1205061,2,-4.281503672666666,7.2405672648680675,-0.7283971770416662,1404.2349287435468,1.3253999999999997,9.565771,16.453369761257328,3.0,-1.0
Rb4P3(PdS4)3,mp-1205068,223,-4.509398035,2.0634273180455,-0.9922381392370132,1832.9463962970544,0.0,12.238173,12.238173,3.0,-1.0
KBa2Cd2Sb3,mp-1205075,62,-3.10047967,5.239975615686926,-0.7028391891250001,1145.7193588238788,0.2048000000000001,5.0332940000000015,17.034582999999998,3.0,-1.0
CsBi,mp-1205121,14,-2.756139511875,5.437064894020238,-0.36342117084051706,1670.6508366958144,0.2452000000000001,7.8920270000000015,15.656717876657837,3.0,-1.0
VBi2O5,mp-1205158,62,-6.445498377500001,7.765217620816504,-1.894210623281251,1408.540662921259,0.6997,5.455858999999999,16.546087,3.0,-1.0
Rb11Cu18(Cl15O)2,mp-1205239,12,-3.4329210729508195,3.283110182213437,-1.2906513172590164,1608.1665308109436,0.0,12.803810906150405,13.798751153820046,3.0,-1.0
B11H2CCl11,mp-1205245,2,-5.0116322498,1.704466050859191,-0.8927552799573328,2037.8150841363567,3.5631,9.378881,15.837198816440676,0.0,1.0
Re2Te4Cl22O,mp-1205458,14,-3.479233280172413,2.9859319847452133,-1.0898317268265525,1867.2084911144927,0.07350000000000012,9.508662,18.609544554378594,0.0,1.0
Zr6PI14,mp-1207461,64,-4.7499815397619045,4.90855620722259,-1.0339974325510204,1593.3552327309412,0.0,10.983404702899415,13.261242999999999,3.0,-1.0
ZrBr4,mp-1207486,205,-4.3836047955,2.514287885197353,-1.3645234375000002,2170.684985242714,3.7818,12.947888,12.947888,0.0,1.0
Zr6GeI14,mp-1207495,64,-4.6426642421428586,5.020973496960285,-0.9643114685714292,1585.2405025968058,0.9309999999999999,10.964604909699665,13.257057999999999,3.0,-1.0
Zr6SiI14,mp-1207498,64,-4.712369502619048,4.873309385519513,-0.9958126259523816,1602.9110725807475,1.084,11.018017310558648,13.256957,3.0,-1.0
Zr6CoI14,mp-1207507,64,-4.7037073795238085,4.869174362181067,-0.9070074659523816,1625.3123406203335,0.0,11.05223373830015,13.352575,3.0,-1.0
Zr6FeI14,mp-1207511,64,-4.79198685047619,4.814916862958767,-0.9304447900000004,1641.4973025604156,1.0524,11.099118382551293,13.369653,3.0,-1.0
ZrTe7SeCl6,mp-1207516,14,-3.703156741666666,4.082835836771321,-0.9318351097935832,2076.0249088458067,1.0316,11.777939,15.679314400348025,0.0,1.0
Y6Ta4Al43,mp-1207857,193,-4.976391656132075,4.205784742000792,-0.31054829971698145,1908.9144204882275,0.006000000000000227,11.140402744460587,17.760454,3.0,-1.0
Y6Ti4Al43,mp-1207858,193,-4.710813024339623,3.289532630688357,-0.34401009157232704,1903.186818397526,0.0,11.108006535732008,17.8106,3.0,-1.0
Y6Nb4Al43,mp-1207860,193,-4.869559367264151,3.5880952738765752,-0.3362799799056608,1911.5747543146472,0.02259999999999973,11.142365987647011,17.778938,3.0,-1.0
WI2,mp-1207889,64,-5.544646845,6.035638716896743,-0.20926294499999976,1444.8840225474592,1.9578,10.807778444573565,12.939533,2.0,1.0
Y10B7C10,mp-1207937,15,-7.965896173148147,4.792583436942508,-0.4218865239197532,1503.509225084876,0.0,8.001844465798433,23.73265225229009,2.0,1.0
Tl3SnI5,mp-1208219,19,-2.684755095,6.111570695118205,-0.6053557761111108,1485.0068627013886,2.439,9.111412,16.501275,3.0,-1.0
Tl2(SeO4)3,mp-1208398,14,-4.9905053701470585,4.966742373044784,-1.0987979573253672,1120.197379249767,1.4918,9.166286,15.687094536483965,3.0,-1.0
TeBr4,mp-1208424,15,-2.32369262575,3.6435132158712285,-0.38549120775,1630.5573114953272,2.5242,11.028643006825817,16.889465439932223,0.0,1.0
Ti3Zn22,mp-1208498,135,-2.1778366282,6.90284740141328,-0.1218032094,1522.8309788358044,0.0,11.460288,11.527313000000001,3.0,-1.0
Ta3Se12I,mp-1208533,128,-5.468913643125,5.873093475262159,-0.5283959408203129,1829.0441922186303,0.17969999999999994,9.719192,19.362609,3.0,-1.0
Tl3Cr2(PS4)3,mp-1208541,14,-5.07836916275,3.475931225558532,-0.8630296694107138,2283.225981380353,1.5650000000000002,9.970036,19.574961919255554,2.0,1.0
Te2As(SeF2)3,mp-1208562,60,-4.02902678875,3.9070402659280834,-1.5326304970142708,2315.438336862499,1.1084,11.014159,15.254567000000002,0.0,1.0
Sr5Sb2As,mp-1208629,62,-3.7050922234375,4.385936881050107,-1.0345263294791671,1145.7227191170048,0.0,8.684586,13.298078,3.0,-1.0
Sr4SiP4,mp-1208796,218,-4.783106113055556,3.4257133871835648,-1.023508059828043,1948.4534170331297,1.3242999999999996,12.490026,12.490026,3.0,-1.0
RbZr6CI14,mp-1209204,64,-4.790497964318182,5.107537779920662,-1.0255118205681826,1574.5240653282003,0.0,10.966105019680645,13.141104,3.0,-1.0
Sn17Os4,mp-1209264,57,-5.359661900357144,9.249080424604186,0.0247218775,1995.710383667992,0.0,7.083189999999999,19.485169,3.0,-1.0
Re3Te4Br3,mp-1209284,2,-5.724725310499999,7.0421437337387465,-0.2429688209999995,1234.398135804503,0.0,9.573986,13.672183817801606,0.0,1.0
Sb10Pb10(S8Cl)3,mp-1209339,10,-4.310903576808511,5.7575106915899825,-0.7889930909527666,1201.3884823988715,0.0,3.9607089999999996,19.71948205671267,3.0,-1.0
RbFeI4,mp-1209403,14,-3.2400682466666666,3.8701861918153297,-0.6489703445833334,1113.7187641609164,0.5775999999999999,7.4434830000000005,18.366392,3.0,-1.0
S3N,mp-1209413,61,-4.8372821359375,1.779380831321717,-0.24442168887625024,1645.4643083442081,1.6463,8.410511999999999,14.621979999999999,0.0,1.0
Rb3Au3Br8,mp-1209453,15,-2.7408797682142856,4.814508682289613,-0.8938326855357143,1025.4211932886167,1.1374,7.6376868824566255,19.724429416871377,3.0,-1.0
Sb3Cl11F4,mp-1209457,14,-3.336567687083333,2.573839086943073,-1.5664807426733334,2145.175410423036,1.7209,9.836811,17.152526,0.0,1.0
RbP11,mp-1209498,11,-5.16840946125,2.2472797399955784,-0.12451958223214275,1259.633446584668,0.6393999999999997,6.8680020000000015,18.764031297161807,2.0,1.0
RbBi3Se5,mp-1209506,12,-3.894579623148149,6.258383420148465,-0.5467802463946759,1762.6569124595153,0.5703,18.644383302527327,25.07573846024025,3.0,-1.0
Rb4Ge23,mp-1209551,223,-4.079604586481482,4.80282105960749,0.0037945599999997313,1391.6763798685004,0.0,11.164675,11.164675,3.0,-1.0
Rb4Sn20Hg3,mp-1209556,223,-3.299287608703704,5.688365556726793,-0.15022781296296306,1937.0783661608602,0.0,12.465672999999999,12.465672999999999,3.0,-1.0
Rb4Hg3Ge20,mp-1209596,223,-3.6187130109259273,5.708730065480562,-0.015241363333333143,1394.1399182533594,0.0,11.171259,11.171259,3.0,-1.0
RbGaSnSe4,mp-1209628,14,-3.8640021642857145,4.139294045385822,-0.7208811156250005,1892.6659992364148,1.3776000000000002,7.7123880000000025,18.697588096392806,3.0,-1.0
Sb2Te3(SeF4)3,mp-1209641,19,-4.220146812125,3.9576278059155316,-1.9590347466905629,1831.3479687808856,1.38,8.94098,16.215297,0.0,1.0
SbTe2SeF6,mp-1209762,19,-4.2026977133750005,4.0479658509809635,-1.959216175323376,1870.2895239388386,1.4718999999999998,9.018227,16.376124,0.0,1.0
Sr2Ca49Mo12N56O3,mp-1209837,2,-6.4462558879508185,3.5843888735517075,-1.1388418559865858,1909.9294813372,1.901,10.633694,16.01338568223666,3.0,-1.0
Sc44Ru7,mp-1209947,216,-6.948057247843138,3.977715670456557,-0.2117951261764699,2242.22205522537,0.0,14.691445869841473,14.691445869841473,3.0,-1.0
Rb9Co2S7,mp-1210027,198,-3.7413993275,3.166420510638957,-1.1107120324652782,2331.6443570946412,0.11139999999999994,13.260323000000001,13.260323000000001,3.0,-1.0
Nb4P2AuS20,mp-1210205,15,-5.640336539259257,3.2041997159283344,-1.0490228073941796,1318.2320398677425,0.017100000000000115,13.136668218984067,13.417986766062484,2.0,1.0
NbSe4,mp-1210280,130,-5.343528968499999,5.734683126813422,-0.5265387783749996,1420.2828312820466,0.0,8.499407000000001,19.660637,3.0,-1.0
Sc25InIr7,mp-1210294,202,-7.354785973636364,6.184957997048152,-0.5992579646969697,1387.6320080800147,0.0,12.519772452393534,12.519772452393534,3.0,-1.0
Re3Br7,mp-1210365,2,-5.1572954939999995,4.7628170975269715,-0.2780887605000004,1559.0756066869026,0.35990000000000005,10.187002,14.908294845590556,0.0,1.0
Y3Ga15Ru4,mp-1210366,62,-5.151391636363637,7.382688010258626,-0.5187368864772733,1544.6320481183618,0.0,8.820234,17.978929,3.0,-1.0
Sc50In3Rh13,mp-1210379,202,-6.880894527272727,4.6228696423131685,-0.5079474249999993,1411.6672270790832,0.0,12.591644199846895,12.591644199846895,3.0,-1.0
Na5(ZnSn5)2,mp-1210443,60,-3.047365485,5.001420224263007,-0.1539262583333329,1902.924584613365,0.0,10.922215,13.211903,3.0,-1.0
Na5(Sn5Hg)2,mp-1210474,60,-2.941814790735294,5.629997011036828,-0.1608535928921564,2009.434842159102,0.0,11.041223,13.519619,3.0,-1.0
Mg26Ag7,mp-1210857,202,-1.9046689887878792,3.318270791503976,-0.04299706989898981,1388.1808436251206,0.0,12.521422839620822,12.521422839620822,3.0,-1.0
Mn8(Al9Zn)3,mp-1211131,63,-4.831294206052632,3.9614246536777338,-0.14173025861161573,1143.7107748299925,0.0,7.780284,12.569866067889507,3.0,-1.0
Mn6Te5O16,mp-1211172,62,-6.564772745,4.884170240828518,-1.8043175573589267,1664.0424096367785,1.9856,10.71596206,13.43799685,3.0,-1.0