pretty_formula,task_id,spacegroup.number,final_energy_per_atom,density,formation_energy_per_atom,volume,band_gap,min_abc,max_abc,Dimension,Dim
K16Na9(Tl6Cd)3,mp-1197369,194,-1.7557542896739131,4.7040893124045455,-0.1280004631086957,3423.1116697564976,0.0,11.449628249517842,30.151413,3.0,-1.0
Ca3(PO4)2,mp-1197377,14,-7.243767660705128,2.7809850988684435,-3.3354064981776563,4444.990960605254,4.9116,13.005895984367905,27.55326839,3.0,-1.0
Ga4Si12H138C55S4,mp-1197409,148,-5.219894445328639,1.0576806619304546,-0.3106704665120185,4847.670231728923,3.7139,17.155884639509143,17.155888978938414,0.0,1.0
CsV(PO3)4,mp-1197526,205,-7.141914530462962,3.058661423173536,-2.6475568908638936,3255.6561581601477,0.014000000000000234,14.82106836,14.82106836,3.0,-1.0
Ga8Sb7Te8Cl29,mp-1197560,14,-3.3718803801442307,3.2863748103374486,-1.1673446404238463,6991.135272098002,1.4760999999999995,10.89694809,34.38687356273515,0.0,1.0
Na5B(SO4)4,mp-1197581,29,-5.948244514038462,2.3600705782375684,-2.2915037516666668,2870.734278280529,5.1366,10.97031011,18.53032234,3.0,-1.0
Ag2Sn(S2O7)3,mp-1197599,147,-5.7500077143888895,3.2397715000068854,-1.760954450833334,2653.4327389864748,2.4602000000000004,10.613422230002435,16.990697813955038,3.0,-1.0
K3Al(PO4)2,mp-1197607,14,-6.555455512261903,2.4163944856879658,-2.8505506448435374,2756.0929124317017,4.521,9.95945632,20.554283028931245,3.0,-1.0
Ba6Te10Br2O25,mp-1197646,41,-5.63618542761628,5.095071789056603,-2.092875565319768,3467.3718196245154,3.0197,11.67429158,18.373357907985877,3.0,-1.0
SbNCl8O,mp-1197652,14,-3.2522577360227274,2.017388774243103,-0.85608076236,2867.002253572602,1.7767,10.968703999999999,23.02612171481655,0.0,1.0
Ba4Cu8P15,mp-1197658,60,-4.984909631898149,4.962153392581267,-0.4786568688822757,4075.342691651595,0.0,10.1687734,28.20581212,3.0,-1.0
CuAs12P4S12Br,mp-1197719,159,-4.619050730333333,2.842974636437144,-0.4532315330595244,3624.094299380137,2.2876,13.773258588137555,22.05949,0.0,1.0
Ba20Cd4Hg99,mp-1197757,216,-0.8924581103252032,10.650329674940174,-0.3059919983333333,3594.5416874447133,0.14210000000000012,17.19436628736337,17.19436628736337,3.0,-1.0
FeTe3S3Cl3(OF2)9,mp-1197776,14,-4.577706560202702,2.7448963993747504,-2.060724943225,2727.5365015157195,3.0463,9.790239,18.7485181906807,0.0,1.0
Sr(BiS2)2,mp-1197827,176,-4.583077728690476,5.5696611145378245,-1.2457192514285709,2267.6799656433027,1.0318,4.0943309999999995,25.28914164327374,3.0,-1.0
V2Ag4O7,mp-1197838,61,-5.700824224278848,5.7952842786032805,-1.4043861908493591,2958.6304780923438,1.2064999999999997,10.99512482,19.05775934,3.0,-1.0
Cs5As5Se9,mp-1197848,62,-3.767294824736842,4.022063069321195,-0.6496207624078378,2889.6316403713445,1.2854,8.209837,27.515684999999998,3.0,-1.0
Bi2S2O9,mp-1197960,15,-6.038775890384616,5.4515799462067696,-1.9666960771153847,2288.450561458842,3.5203,16.833609510343347,23.321489837113106,3.0,-1.0
K10Ge18WO4,mp-1197968,14,-4.238258101439394,3.2118983111990413,-0.6046738831060599,4025.0024005313508,1.7088,14.184840596938207,17.762627453232962,3.0,-1.0
Sr5(Sb11O19)2,mp-1197996,14,-6.062916765,5.108000468019755,-2.053367205628205,2421.758300331609,2.6046,11.920117,20.224577967614405,3.0,-1.0
Te3WCl4O,mp-1198077,14,-4.012016422083333,4.355838576636591,-0.978894351448888,4418.822526639938,1.1381,9.44329243528212,28.05644207446234,1.0,1.0
VP3(Pb2O7)2,mp-1198079,14,-6.806380383693183,6.131729021878482,-2.35494090656656,2592.536428248724,2.222,13.480987049226474,14.02695693,3.0,-1.0
NbP(Cl3O)2,mp-1198112,14,-5.0289306465,2.0797746174358402,-1.8760278765631435,4708.738086436823,2.6777,15.108651705091708,17.73386052,0.0,1.0
AlH7C2SCl4,mp-1198123,14,-4.456945931083334,1.339572104999272,-0.8992334221836671,2300.065748637788,4.6652000000000005,11.464913000000001,15.320757052213347,0.0,1.0
AgSb3PbS6,mp-1198276,14,-4.251709371647727,5.201116699614338,-0.6362415539583334,4458.168381022093,1.1162999999999998,13.257336475427758,19.46149775555664,3.0,-1.0
NaZn(PO3)3,mp-1198287,205,-6.633274946785713,2.858603556435714,-2.5600433303784014,3023.5613067158106,4.8556,14.46015427,14.46015427,3.0,-1.0
Sc5OsCl9,mp-1198309,88,-5.771119461750001,3.3505429304293246,-2.1594968773726664,2910.523903634471,0.0,11.77405113,22.585640815192427,3.0,-1.0
Al(BiCl)4,mp-1198361,173,-3.7972521219444446,5.0716911981750945,-1.0949057911711113,3947.4849865860497,1.4598000000000002,13.420082999999998,18.429660222473334,0.0,1.0
Si3Pb11O17,mp-1198381,2,-6.1859101297580645,7.9173654334550525,-2.015220684637097,2210.9685732500893,2.0447,7.473892,22.966991174778233,3.0,-1.0
TaTe4Cl4O,mp-1198418,14,-4.64617519375,4.4732744901787305,-1.2769701211789992,2521.753871892782,1.1384999999999998,8.171650999999999,22.660736896022968,3.0,-1.0
Na5FeP2(O4F)2,mp-1198461,61,-5.971153829201389,2.925912199733369,-2.640972734545251,3620.681984341565,2.4251,11.78699305,22.07374491,3.0,-1.0
HfHg4(AsCl3)2,mp-1198529,61,-3.3507639398076923,5.4654039245042565,-1.1958983259276923,3265.3202741062987,1.3812000000000002,13.720493,17.223055,3.0,-1.0
Sr25Ti39O103,mp-1198567,10,-8.22289627281437,2.8496496835458887,-3.50753840895459,3324.546366898705,1.9476,5.640705196671505,30.06631398850302,2.0,1.0
VAg(IO4)2,mp-1198619,56,-5.119365995052084,5.05118599347163,-1.182048407274305,2843.563162947889,1.3705000000000005,10.90238713,18.4282051,3.0,-1.0
CdSi3AsH27C9I2,mp-1198755,19,-4.887059867093024,1.7038271302712753,-0.3424112249474415,5151.380074707933,3.2214,15.97498791,19.22588906,0.0,1.0
Na5Sn13,mp-1198760,63,-3.3587021030555566,4.787343346333934,-0.0977190364814812,4601.250513549201,0.0,9.16697384,50.91693262,3.0,-1.0
Si(H3C)2,mp-1198774,2,-5.1013958532905965,0.8864346848325071,-0.28836303237059746,2832.4309368584477,3.5656,10.383185525894357,17.940189520391986,0.0,1.0
CrB6P2(H17C3)2,mp-1198848,61,-4.8425504670918365,0.8671499455355349,-0.22892392617801746,4368.263139429546,0.7475999999999999,14.60560709,17.44504702,0.0,1.0
Hg3(SCl)2,mp-1198863,223,-2.2220144764732144,6.207712287463561,-0.7413397932975,6306.968317335819,1.8038,18.47595446,18.47595446,3.0,-1.0
Y5RuBr9,mp-1198882,88,-5.369846195166667,4.306569907760985,-1.6139072563888888,3901.280762207333,0.1543000000000001,13.0084959,24.821642102173943,3.0,-1.0
CdSb5OF28,mp-1198900,14,-4.348425783,3.5005604309751326,-2.474455349416286,2408.1849191011443,0.0242,10.231649,18.603508556314853,1.0,1.0
Cs12Sn8GeO4,mp-1198905,14,-3.4456303791000003,4.24716202280796,-0.8685466577068968,4193.1144893036635,1.3022999999999998,13.765645373153408,24.94928206,3.0,-1.0
V2Co3TePb3O14,mp-1198906,3,-6.385329515869565,5.925944510402521,-1.8537067233695657,2104.7642147287,2.2327000000000004,5.281485,26.232184000000004,3.0,-1.0
Cs9(NbAs3)2,mp-1198953,61,-3.7436587848529417,4.242782964970233,-0.4368386755223124,5734.468324120602,0.3195000000000001,17.30174855,18.47040846,3.0,-1.0
SiAg2(S2O7)3,mp-1198966,147,-5.873527205,3.12922872356458,-1.8372825359444451,2458.625849612895,3.5295999999999994,10.667871690003087,16.313316996087668,3.0,-1.0
K3Bi2(NO3)9,mp-1199040,212,-6.068258409939022,2.8205847156795856,-1.255661268333414,2574.596705872813,3.5856000000000003,13.70575833,13.70575833,3.0,-1.0
Sr13Hg58,mp-1199288,194,-0.8454704964084507,10.647533196848844,-0.2880519405868544,3984.121027187356,0.014299999999999981,15.77471651,17.07733655197175,3.0,-1.0
Si(H3C)2,mp-1199394,9,-5.099909788080809,0.9017617510387178,-0.2868769671608076,2355.936565391245,3.6294,9.847615524763599,26.28352001951757,0.0,1.0
Ca2CoSi2O7,mp-1199429,18,-7.240466587268517,3.208678063013255,-3.089149597581019,2862.1726194548537,3.1123,5.08158266,23.75756253,3.0,-1.0
Sc5RuCl9,mp-1199442,88,-5.644182015333332,2.9546442029388573,-2.162755750622666,2899.640496551822,0.0,11.76650641,22.53564205628668,3.0,-1.0
B2S3,mp-1199451,88,-5.58719102756,2.4123142396181847,-0.8316403991016669,4055.021688231164,2.5264,16.26974947,19.157902707535783,3.0,-1.0
KLiMoO4,mp-1199453,173,-6.212252258214287,2.7836810523081534,-2.309877012690476,2948.8955049664805,4.481,9.11467026,19.32833532356652,3.0,-1.0
Ba2NaNb5O15,mp-1199624,40,-8.322658063967392,5.090958681793204,-3.133784102753624,2615.046806858276,2.5069,8.19816282,18.29466026401435,3.0,-1.0
Cs3Ag(AsSe2)4,mp-1199633,15,-3.77741644078125,4.020034588575884,-0.5197584057318605,2375.873824150888,1.6042999999999998,13.655171987098113,23.171338598306946,3.0,-1.0
K3Fe(CO2)6,mp-1199661,213,-7.057051221022728,2.134687881145533,-1.8126480598409085,2720.7069985588,2.4662,13.96027343,13.96027343,3.0,-1.0
Bi(W2Cl5)3,mp-1199722,14,-5.742010856704545,4.992711422105382,-1.1762582302909086,2452.95771731794,2.2981,12.71534,15.711112817279368,3.0,-1.0
Ba4P15Au8,mp-1199731,60,-4.725607610833333,7.39913277845772,-0.4638956270767202,4649.420531912795,0.0,10.62464955,29.45150534,3.0,-1.0
AlPO4,mp-1199762,8,-7.457495243148147,1.4105034130065497,-3.1005746487433865,5168.560344560942,5.6196,17.006256491438965,18.73718160215989,3.0,-1.0
B8P2H39RhC13,mp-1199795,14,-5.3049159975,1.1483339361419098,-0.25850500300247864,2584.3071167343464,2.2867,10.28574546,17.17311098228683,0.0,1.0
CsReS2,mp-1199798,62,-6.201722060833332,5.2769860678378135,-1.1302447381285925,2894.329703410908,1.2666,11.514787,21.209455,3.0,-1.0
Ba8Ge43,mp-1199827,230,-4.416200788284313,5.504134208824394,-0.2173387411274509,5095.09507326909,0.02079999999999993,18.77549494384956,18.77549494384956,3.0,-1.0
KCd(BH4)3,mp-1199830,206,-3.8187504105882346,1.7466521785843705,-0.23355606023176445,2981.9611629883393,3.9466,15.705121161070947,15.705121161070947,3.0,-1.0
Cs10Tl6SiO4,mp-1199833,14,-3.200359194761905,4.987655485524905,-1.0321726473481116,3525.6430789068554,0.19229999999999992,11.754592,19.63669168695697,3.0,-1.0
K,mp-1199937,204,-1.0606007579012346,0.8433094593985124,0.04979818909876529,6235.984386265815,0.11930000000000004,20.083634231738145,20.083634231738145,3.0,-1.0
Al3Pb5F19,mp-1199974,85,-5.332729013888889,6.402050537881693,-3.2293802960225926,3066.685436309849,5.1093,7.31196544,20.47941517,3.0,-1.0
Rb18Mg6B29O58F,mp-1200013,15,-6.970925784017857,2.768576447414672,-2.7867936207993145,3532.3887820299383,3.7865,11.201634906651492,31.50295496316401,3.0,-1.0
K5NaFe2(CO2)12,mp-1200037,212,-7.0644460564204525,2.1677392517848983,-1.8154007754734849,2629.8665187766087,2.5346,13.80314029,13.80314029,3.0,-1.0
Tl3Bi3(PS4)4,mp-1200066,14,-4.451589453846154,4.376425176945364,-0.7602031774725273,5697.573013158132,2.0969,13.46686783,22.65050971690861,3.0,-1.0
Rb2ZnBr4,mp-1200099,7,-2.8349914563095235,3.451111179791277,-1.4394888970238096,6420.1533780517175,3.7026,15.800240296204214,29.67256471,3.0,-1.0
Cu2As9P3S9I2,mp-1200181,14,-4.4468298255,3.3107978075837674,-0.4198190014535726,2882.3254280959363,2.0858,12.454022,16.350903799587623,1.0,1.0
SiO2,mp-1200292,14,-7.905988411215278,1.6982993982485213,-3.2671067587152773,5639.84386030652,5.7076,13.606316165770929,20.47811106,3.0,-1.0
Bi2Se5Cl7,mp-1200639,19,-3.3025254323214286,4.189651218609798,-0.8713409433599105,3363.943410034648,1.4358000000000002,12.082925,22.582041,2.0,1.0
ZrHg4(PCl3)2,mp-1200713,61,-3.3378721383653844,5.177212848669308,-1.1754029327271431,2997.634489201996,2.1134,13.316851999999999,16.530004,3.0,-1.0
Cs3Bi2(PS4)3,mp-1200951,14,-4.456379213625,3.4855553709976315,-1.03727862747537,2466.5979915762937,1.9749,6.974097,19.281658747347286,3.0,-1.0
Cs9Fe2Se7,mp-1201016,198,-3.67506024125,4.183524403091198,-0.9267264939047534,2953.998321944581,0.6436000000000002,14.348398000000001,14.348398000000001,3.0,-1.0
Be4N6O19,mp-1201141,205,-6.39249482512931,2.0629422787349934,-1.4497317736820683,2730.8463635462367,3.7137,13.97759403,13.97759403,0.0,1.0
Cd3As2,mp-1201202,133,-2.4896044575625003,5.9224616957331975,-0.07222323956250029,4370.123641491991,0.14090000000000005,13.01766287,25.78859515,3.0,-1.0
Te6MoI3,mp-1201330,14,-3.5981146771250003,5.146436783311117,-0.17036603162500086,3206.584135433441,1.0200999999999998,12.072925999999999,17.46714035862382,3.0,-1.0
BaSi(S2O7)3,mp-1201400,61,-6.219211072025861,2.563780142483276,-2.172962834267241,3594.895564942219,5.2901,13.77487397,16.756349,3.0,-1.0
Sr15Ti23O61,mp-1201432,10,-8.210535629343433,2.8328913852070383,-3.5042312982617845,3975.604160774601,1.8133,5.64097174640507,30.111338103146373,2.0,1.0
Ba5In3F19,mp-1201460,78,-5.279252571620371,5.033606274547091,-3.6184985759762966,3673.8158102606317,4.7704,15.25020692,15.79668311,3.0,-1.0
Rb11Mn8O16,mp-1201493,22,-5.7344140609285725,3.765563246145693,-1.7754605508548975,2885.140810289729,0.14859999999999962,11.924461386295693,24.963295509167395,3.0,-1.0
ZnBi4(PO6)2,mp-1201539,15,-6.297205468980264,6.895494907975508,-2.160656090145676,4451.306315003415,3.1523,10.96509888,24.67366644337293,3.0,-1.0
Sc57Ir13,mp-1201561,200,-7.289612526857143,5.620142182192758,-0.4917506062142853,2990.849470732565,0.01959999999999961,14.40781705,14.40781705,3.0,-1.0
K2Tc9O27F11,mp-1201694,14,-6.678012169438776,3.2984837105331186,-2.0713714304151023,3224.2614160527587,2.6599,8.564489883008788,25.700964501908594,3.0,-1.0
Si(H3C)2,mp-1201857,14,-5.101198515648148,0.8916567736012223,-0.2881656947281478,5198.4784331828005,3.6196,10.146880312777151,33.72065745,0.0,1.0
Ba20Hg103,mp-1201907,216,-0.8720502674796747,10.88357778360348,-0.3057210463821138,3571.3212577553386,0.1802999999999999,17.157261566127392,17.157261566127392,3.0,-1.0
CsSe4,mp-1201920,57,-3.4161487703750004,4.105778165485435,-0.4403391138362068,2903.846525769301,0.9736,10.434833,19.727404999999997,3.0,-1.0
Rb6Mo27S31,mp-1201941,167,-7.45161570328125,4.783027589126549,-1.1019555139355468,2844.877444617153,0.0,9.395653111655903,37.60496282246915,3.0,-1.0
Y5IrBr9,mp-1201999,88,-5.422978649666666,4.659583164590021,-1.6961036598888886,3865.574007468297,0.6941999999999999,12.95892295,24.775312890891037,3.0,-1.0
Na2Sn(S2O7)3,mp-1202012,147,-5.905097833833332,2.3856767650600057,-2.0172381560555555,2894.4358534307844,3.5073,13.32055162001326,15.840027424555444,3.0,-1.0
K19Na6Tl24Au,mp-1202061,189,-1.8930437755,5.087812626270325,-0.1142628484399998,3905.394954873293,0.0,11.705341,19.62795864742847,3.0,-1.0
K2Mg2(MoO4)3,mp-1202098,19,-6.534046608859649,3.207715766267985,-2.412295413649122,3768.345897165617,4.1171,10.78546879,32.36289867,3.0,-1.0
HfHg4(PCl3)2,mp-1202310,61,-3.470771763461538,5.57505764797708,-1.199880387054066,2991.657066837693,2.0914,13.321017000000001,16.532213,3.0,-1.0
B10H18C2S,mp-1202352,14,-4.965075388225807,0.916544671235054,-0.22198735983714954,2642.809008571527,2.0905,7.314491379004883,33.28953062,0.0,1.0
Sr5Ti8O21,mp-1202462,10,-8.236936945,2.7037395309030634,-3.5083982025367635,2842.4077611183793,1.8579,5.651008645726754,32.01610515707209,2.0,1.0
Cs4TeSe15,mp-1202488,57,-3.405807164375,4.096681473037175,-0.4476280352190191,2989.15700984276,1.0499999999999998,10.409597,19.993876999999998,3.0,-1.0
Cs10Ge2O9,mp-1202492,14,-4.4027974764285736,4.550672540752936,-1.7165561121695403,2362.1112709386293,0.4011,11.79011,19.347042418931373,3.0,-1.0
Ba9Ge23O57,mp-1202498,36,-6.448242283483148,5.3283489388749965,-2.3403399255758432,2380.0927364125228,0.0,11.859200933888385,19.51114144,3.0,-1.0
Cs4Ge5(PbS4)4,mp-1202502,64,-4.388084063017241,4.052397394685581,-1.0392849280766947,3666.041553735764,2.2965,19.977442,20.018570617386697,3.0,-1.0
Zn9(InSb3)2,mp-1202823,19,-2.448275963088235,6.2142381489675005,-0.00033082250000028487,3311.0681711296074,0.0,7.23005678,26.31757914,3.0,-1.0
Ba38Na58Li26H,mp-1202832,216,-1.6527787019512197,2.171527083756579,-0.01015714665544696,5148.873652549319,0.05470000000000008,19.382468086364238,19.382468086364238,3.0,-1.0
LiCu2Si12(H3C)27,mp-1202845,2,-5.0471521198780485,0.9853511250999486,-0.2768037221670997,2955.855726719643,2.7035,13.609507685526884,17.85671740505579,0.0,1.0
Na3Y(SiO3)3,mp-1203085,19,-7.172421498632812,2.8568083725745126,-3.116336558502604,3591.0157191569124,4.2323,15.22162872,15.40760548,3.0,-1.0
Ga7Sb7(Te4Cl13)2,mp-1203106,2,-3.3837973461458333,3.4344221702930406,-1.1370013037970832,3174.6136049901647,1.4002,11.059774,19.399094936551162,0.0,1.0
CsGeSbO5,mp-1203289,98,-5.957108242265625,4.899214091751324,-2.0976383909132554,2208.816746965701,1.6632999999999998,10.41890565,21.64037867425682,3.0,-1.0
Sc5IrCl9,mp-1203297,88,-5.691780391,3.3662604845613497,-2.2394180752893336,2904.775570107105,0.21809999999999974,11.76551708,22.57313763503182,3.0,-1.0
Sb2Cl7O6,mp-1203379,14,-3.8123156150833335,2.5505829408510707,-0.978385473104667,3060.8779538781127,0.0906,9.858171,21.955004000000002,0.0,1.0
Si8C3Cl20,mp-1203441,15,-4.463857351209677,1.8951548917815804,-1.3619259384741935,3398.8801799543544,4.6567,17.128823130492798,20.797129067626237,0.0,1.0
K3Bi3(PS4)4,mp-1203444,130,-4.481278534807692,2.9980759584935406,-0.9342677237802196,6119.89470758357,2.3129,13.75683231,21.09175672,3.0,-1.0
Cs2HgCl4,mp-1203522,14,-2.7746280367857143,3.692907232198661,-1.7589296059145814,2187.894196234814,3.0746,7.923967,27.885535851079677,3.0,-1.0
CuP2H18C6Cl,mp-1203798,198,-4.991864947633927,1.1943560505244668,-0.3541658949754581,2793.47477595354,3.006,14.08364009,14.08364009,0.0,1.0
Ga8Sb7Se8Cl29,mp-1203849,2,-3.4660962719230763,3.160606870750416,-1.2073127556401924,3225.787932724071,1.6847,11.141573,19.548738363013406,0.0,1.0
Rb8Mo33S37,mp-1203858,167,-7.438238829102564,4.726538335160504,-1.1016860387900629,3538.637421568005,0.0,9.404766201366886,46.4801159179546,3.0,-1.0
Cs3Ti3Te11,mp-1203892,14,-4.328868340588237,4.756958837827176,-0.7436334349290059,2717.090392979526,0.10610000000000007,11.134536,18.714191748043245,3.0,-1.0
W15I47,mp-1204035,5,-4.43271447532258,5.491112112864985,-0.14238399217741873,2637.608602763409,0.07160000000000011,12.54633648887216,21.62318338235324,1.0,1.0
SiO2,mp-1204057,191,-7.899327900462962,1.5630043897829058,-3.2604462479629626,4596.0252079832,5.6518,14.467768399135359,25.35405150006713,3.0,-1.0
Fe3Ag7(P2O7)4,mp-1204059,14,-6.388407383043478,4.557973731082846,-2.057454759570393,2358.40997038496,1.3194000000000004,8.56448303,28.47829095469801,3.0,-1.0
InH12C4Se2Cl3,mp-1204093,61,-4.5347993064772725,2.3236514823681267,-0.4762073813821589,2511.1063868075394,2.9381,11.66505947,18.30356837,0.0,1.0
Mo12PO40,mp-1204131,227,-6.917939775188677,1.76289533119896,-1.9553808889353097,3432.8569082593126,0.0,16.932596771181668,16.932596771181668,0.0,1.0
Ba9In4(SF)10,mp-1204134,62,-5.125830860378788,4.656854969279847,-2.7860468483530307,3146.242274514498,2.2503,12.67724781,19.56612436,3.0,-1.0
Sr4Ga2O7,mp-1204230,7,-6.132215741009616,4.760645521301629,-2.8603869487339755,3359.257594679842,2.9805,13.180943283254392,16.000323534469068,3.0,-1.0
Cu4Se3O10,mp-1204253,14,-5.170798183455882,4.327365993061194,-1.0919031363694849,3997.28516739647,0.16670000000000007,13.682806,18.01873060634253,3.0,-1.0
Hf7Tl18Pb2S25,mp-1204271,205,-5.179687692884615,7.341173485011329,-1.2093008390024036,5559.2967751366805,1.4949,17.714950899999995,17.714950899999995,3.0,-1.0
Cs4BiAs3Se7,mp-1204289,14,-3.7640899739166658,4.273373863182977,-0.7027313501253593,4719.161699070379,1.4702,13.74845034880576,24.27285753,3.0,-1.0
Cs7Mo8AsO30,mp-1204347,73,-6.448821139402172,4.051504375336134,-2.170254980446027,3693.2443548374495,2.9731,12.47470442,18.317485146887385,3.0,-1.0
Ba5Cr3F18,mp-1204444,88,-5.94902370485577,4.58100299175615,-3.714989129141154,3435.170061257627,1.4330999999999998,15.64733668,16.755501531621658,3.0,-1.0
Cs2ZnI4,mp-1204449,33,-2.489533666904762,3.9124472608692833,-1.1828766934564865,4272.28121223721,3.2239999999999998,8.568605999999999,33.298654,3.0,-1.0
Cu3P8(Se2I)3,mp-1204573,62,-4.183497637125,3.892309806110593,-0.12592695650669655,2206.313029459787,1.3382999999999998,7.963659,27.511038,3.0,-1.0
Si10BiTe2H73C25,mp-1204603,14,-5.08011225740991,1.2353650647159058,-0.2909224362320715,6015.867498481102,1.9501,9.862039020848703,32.7345842,0.0,1.0
NaZn(PO3)3,mp-1204623,61,-6.634951225848213,2.8472076034372984,-2.561719609440901,3035.663115694392,4.8321,14.442260899999999,14.52646049,3.0,-1.0
SrSbSe3,mp-1204655,19,-4.22211472275,5.276147211705712,-0.9608713374895828,2247.1917757468314,0.40180000000000016,4.210294,33.670018,3.0,-1.0