pretty_formula,task_id,spacegroup.number,final_energy_per_atom,density,formation_energy_per_atom,volume,band_gap,min_abc,max_abc,Dimension,Dim
In16Bi8Pb3S38,mp-1225888,1,-4.200133315384615,5.800978240748924,-0.8423060798269226,1531.1599339396164,0.0,7.7859789999999975,15.056115151350859,3.0,-1.0
CuP7I,mp-1225955,14,-4.8838100851388875,3.4375231086061206,-0.04867449458333322,1573.88309478577,1.1212999999999995,9.847574,16.599538202143155,3.0,-1.0
CsPSe6,mp-1225967,7,-3.763172630625,3.9383544483223365,-0.3526529931956204,1075.3982039662303,1.6333,7.161169,13.395210125863724,3.0,-1.0
K2InMo15Se19,mp-1226012,11,-6.919329827027028,6.0547545987628855,-0.5928583365008443,1718.1199002869485,0.0,9.94706,19.909582999999998,3.0,-1.0
CsW3Br7,mp-1226055,159,-5.397146504318181,5.3701605570926,-0.7400312714028217,1538.3534061161895,2.7127,10.543067374879666,15.980542000000002,3.0,-1.0
K6InAs3,mp-1226185,2,-2.753514277,2.6224696780878425,-0.4143710143,1454.2567126518493,0.4983000000000001,9.154309,19.960082374424886,3.0,-1.0
Cs4Sn21Hg2,mp-1226308,40,-3.460353625,5.777424889908144,-0.18665069265645,1969.226219580725,0.2411000000000003,12.534119418622156,12.534529,3.0,-1.0
Cs3Sb5S9,mp-1226651,12,-4.154784615294116,3.9450686315332533,-0.9437186083481236,1091.0973351440066,0.6826000000000003,9.478524820765992,13.645839358297644,3.0,-1.0
K19Ti3Sb29O88,mp-1226658,1,-5.962814350935253,4.4958447434365025,-2.0912772771726607,2151.6305955243865,1.5470000000000002,10.304568102749565,20.246887259083493,3.0,-1.0
Cs3Sb5Se9,mp-1226687,12,-3.806542975882353,4.670441278393756,-0.5833419985227559,1221.7542545136773,0.4104000000000001,9.77453595100422,14.173285917885735,3.0,-1.0
Cs2Sb8S13,mp-1226852,2,-4.280948044130435,3.7655773416401455,-0.8039183513690031,1461.1701960690539,1.664,8.544151,15.704006205294592,3.0,-1.0
CsNb4Ag(PS10)2,mp-1226881,4,-5.565657016785713,2.8579354771811865,-1.1221017455085922,1528.8537854185126,1.5583999999999998,7.896628999999999,14.981431989680193,3.0,-1.0
Cd2Hg13(As2Cl3)4,mp-1227201,14,-2.3164048281428573,6.539307384212235,-0.6560395931177144,1958.9838169991585,1.4033,12.512327,12.512619349196873,3.0,-1.0
Ca16Sb11,mp-1227708,18,-3.896548344074074,3.825036740549234,-1.0258590211111112,1719.6577092999353,0.0,11.339687,12.317755,3.0,-1.0
Bi13Pt3I7,mp-1227807,2,-3.7130773756521736,8.514523541056738,-0.25867487717391296,1634.4318330860833,0.06669999999999998,9.341644396179431,21.790074982771355,2.0,1.0
Cd15As9Cl2O37,mp-1227896,148,-5.054322197063492,5.555996743878762,-1.635707334488413,1807.1931020732104,0.9608,12.206041398902304,12.20604141852292,3.0,-1.0
Ca11(Cd9Au2)2,mp-1227912,109,-1.9975506960606064,6.440568030494615,-0.42878886212121226,1676.9564619421878,0.0,17.089997230974937,17.089997230974937,3.0,-1.0
Ca2ZnSb2,mp-1227973,6,-3.49659091,4.578469631582919,-0.7908017400000003,1270.0351978838364,0.0,4.6032720000000005,22.003055502494487,3.0,-1.0
CsRe2OsSe4Cl3,mp-1228026,9,-5.933248012272728,4.973608989461077,-0.9553398274623668,1492.7309122567249,2.1060000000000003,10.523456325230267,15.573822280469527,3.0,-1.0
Cs3(Cr5Se8)4,mp-1228215,2,-6.221614768727273,5.229508805154781,-0.6285906996144189,1259.130199038588,0.0,11.036892,11.80694442101372,3.0,-1.0
Ba4Ga5AgSe12,mp-1228309,81,-4.2135349425,5.0300167960141335,-1.1408142803314392,1289.6774258875505,1.5706,6.628305,13.948879000000002,3.0,-1.0
Cs19(W2N5)6,mp-1228320,148,-7.423645870163933,5.762092136206193,-0.6845585203621248,1484.5721317880484,0.0,12.319530561348838,12.319530715052949,3.0,-1.0
Ba3(NaSb2)2,mp-1228324,14,-3.5772480288888886,4.703770591525162,-0.8103344862962961,1334.4275888489833,0.7003999999999997,8.295232,19.69557021255013,3.0,-1.0
Ba6(BiSe2)13,mp-1228368,6,-4.220836405777778,6.5408985820189915,-0.8213259740208331,1420.0652700369394,0.0,4.306774,18.81196551846665,3.0,-1.0
Ba3Cd(SnS4)2,mp-1228659,122,-4.617254251964285,4.04090036335375,-1.5827639023214286,1673.8646506646155,2.0791000000000004,12.955315989683385,12.955315989683385,3.0,-1.0
Ca43Al16Pb13,mp-1228746,166,-3.119484177361111,3.625780920652948,-0.4190061213888888,2220.5939165462914,0.2389999999999999,20.131318741747673,20.131319015996986,3.0,-1.0
Ba36Al9Sn23,mp-1228791,38,-3.4394570939705877,5.0417618928361225,-0.5716146672794116,2607.4974466869344,0.0,13.109817999999999,14.103088683429489,3.0,-1.0
In3Mo15Se19,mp-1228853,11,-6.909559642162162,6.426205760231488,-0.4943700552576016,1697.0724023222854,0.0,9.916273,19.687538,3.0,-1.0
Ba2CdGe10,mp-1228889,40,-4.086332315576923,5.5559624708868665,-0.16393924096153806,1331.1480352721899,0.059899999999999835,10.955655,11.022853004136904,3.0,-1.0
Ba(BiS2)2,mp-1228976,174,-4.6403976344444455,5.794227228473011,-1.2702549319444452,1763.0514008661874,1.2535000000000005,4.181721,22.06427417315269,3.0,-1.0
AsS,mp-1229002,29,-4.47520296734375,3.6723379452205225,-0.4091488314062506,1548.052986867814,0.6095000000000002,7.610967,18.946647,0.0,1.0
Ba4Zn2CuGe20,mp-1229043,40,-4.161207157037037,5.681782958497175,-0.2073132937037037,1283.8672618560386,0.0,10.866700346710449,10.872383000000001,3.0,-1.0
Al53Fe17Si12,mp-1229054,2,-5.28153417304878,3.8477983154291375,-0.3106886097560971,1172.283156114483,0.0,8.782992,16.861463424937973,3.0,-1.0
Ag3Te32Au13,mp-1229219,5,-3.239079375416667,8.29889977394239,-0.07983442145833368,1394.1113143458404,0.0,9.089140549022057,17.552719271345993,3.0,-1.0
As2Se3S3(NF3)4,mp-1229221,14,-4.78165981625,2.8939478002218046,-1.48660018292526,1760.2395119228495,1.5494,10.251951,16.524036,0.0,1.0
Ag10Te4BrCl,mp-1229222,14,-2.933950591875,7.29653849852453,-0.1971042624954169,1551.5782157300828,0.2208000000000001,7.744135000000001,20.00579157855869,3.0,-1.0
BiMo30(PbS10)4,mp-1229231,2,-7.445959898,6.0385819263297735,-1.0055664557999997,1429.548518240907,0.0,9.406169,14.648514929227025,3.0,-1.0
Al79(Fe13Si9)2,mp-1229249,2,-5.304313461463415,3.829625029484794,-0.3142629101626017,1773.026896968648,0.0,8.801302,24.494140099802088,3.0,-1.0
CaCd6,mp-1229298,71,-1.265518475,7.0045541283100174,-0.1879558407142857,2032.7259181436048,0.0,13.82227226302152,13.82227226302152,3.0,-1.0
Ag5Sb23(PbS4)12,mp-1229311,1,-4.2967684773863635,5.39052782763443,-0.6560288525378795,2268.875490565437,0.0,8.695419000000001,19.62485343692705,3.0,-1.0
Ba9(FeSe4)4,mp-1229328,5,-5.018264382413793,5.011218000482998,-1.3256667054310347,1804.4002424288567,0.0,9.967179994174982,19.33791760162097,3.0,-1.0
BaCdSnS4,mp-12306,43,-4.341658521428571,4.020042911384028,-1.3783168196428572,1641.381561091422,2.1964,12.870675656705716,15.692582194984356,3.0,-1.0
Mg(ScSe2)2,mp-1232167,29,-5.527938278928572,4.529593219329527,-1.492386254553571,1261.2632040554415,0.7153999999999998,7.568675,13.08248,3.0,-1.0
Y2MgSe4,mp-1232204,29,-5.7400268048214285,4.892511131951662,-1.6661884923511907,1406.3736383391656,1.0931000000000002,7.907626,13.438426999999999,3.0,-1.0
Nb4SiTe4,mp-1232409,55,-7.118517758333334,5.905404000093952,-0.6292135472222221,1023.6555559139592,0.1695000000000002,4.8753,19.119416,1.0,1.0
Mo5O14,mp-1239172,127,-7.074590832894738,4.311687005503326,-2.021299690131579,2168.0746142228,0.0,3.84076121,23.75901648,3.0,-1.0
Al,mp-1244953,1,-3.6498522018,2.532974860501712,0.09572362820000024,1768.8252505357066,0.0,12.125311291133338,12.276289379794461,3.0,-1.0
Zn,mp-1244987,1,-1.2013688532,6.7334943798243945,0.05837475679999982,1613.043594907879,0.0,11.714990338391654,11.826868210591993,3.0,-1.0
Zn,mp-1245093,1,-1.2046746948,6.725669426370675,0.05506891519999982,1614.9202840891055,0.0,11.753229601372807,11.775190965827127,3.0,-1.0
Al,mp-1245129,1,-3.6508254192000003,2.5505870055562294,0.0947504108000004,1756.6112751564453,0.0,11.785199298664406,12.378066439719653,3.0,-1.0
Zn,mp-1245184,1,-1.2108917173,6.7792829884687045,0.04885189269999984,1602.1487816925169,0.0,11.579297693128431,11.811474203618856,3.0,-1.0
Zn,mp-1245266,1,-1.2074276352,6.690725760909227,0.05231597479999992,1623.3545311604496,0.0,11.715595761274916,11.86516223125941,3.0,-1.0
Ba(MnN2)2,mp-1245357,205,-8.045214285,4.884716954309197,-0.6091753534043337,1236.9807705520082,0.0,10.73464408,10.73464408,3.0,-1.0
Na7VN4,mp-1245360,205,-4.472907536145834,2.541713591910689,-0.2982108413836115,1400.1669192139059,1.2432,11.187334,11.187334,3.0,-1.0
Sr7OsN6,mp-1245384,60,-5.6683968842857135,5.1880375870345405,-0.6135014307819051,1136.3922394826907,0.0,6.76122157,14.03842381,3.0,-1.0
Sr7TiN6,mp-1245386,60,-5.767688656964286,4.514673932530411,-0.9507819486985706,1096.4354089515878,1.3863999999999996,6.6881580000000005,13.922291,3.0,-1.0
Ba7SiN6,mp-1245389,60,-5.47367158625,5.647560421921371,-0.7184613751271424,1262.4545190125175,0.8508999999999998,7.012536999999999,14.393720000000002,3.0,-1.0
Ca8(MnN3)3,mp-1245450,14,-6.759661966625003,3.2247023624544453,-1.0045535596442758,1259.5482327980035,0.0,7.1895766932558525,18.022703034207048,3.0,-1.0
Ba7TiN6,mp-1245657,60,-5.718576880535713,5.570231004567841,-0.7869253839366662,1303.568915594375,1.1059,7.07076731,14.58961006,3.0,-1.0
Sr7ZrN6,mp-1245667,60,-5.7773806232142855,4.468791835901313,-0.9138875854247612,1172.1361211453466,0.8325999999999998,6.819592999999999,13.879551999999999,3.0,-1.0
Sr7ReN6,mp-1245695,60,-5.8654564464285714,5.064843569157013,-0.7236186547104759,1158.7572601709487,0.0,6.80926691,13.94951098,3.0,-1.0
Sr7SiN6,mp-1245748,60,-5.542310844642856,4.574013939992177,-0.9018454218533328,1053.4853213240324,1.1598000000000002,6.600505,13.745470000000001,3.0,-1.0
Ba7GeN6,mp-1245756,60,-5.2705659675,5.7361741402100765,-0.5726619110199991,1294.543356933414,0.9261,7.02251787,14.58923496,3.0,-1.0
Li15W7N19,mp-1245780,2,-7.381454449756098,5.0416101906512845,-0.7854129898834145,1091.602172015038,1.5634,5.784645108471652,17.58868998129909,3.0,-1.0
Ba7ZrN6,mp-1245936,60,-5.750335763214286,5.485463498913425,-0.7720979370914287,1376.2125955212953,1.0088,7.326721000000001,15.03471,3.0,-1.0
Sr7RuN6,mp-1245958,60,-5.5310127162499985,4.773161716385628,-0.6156133195319039,1111.0939277695875,0.041100000000000136,6.69312614,13.96884592,3.0,-1.0
Sr7HfN6,mp-1246024,60,-5.91014867375,5.015290049247746,-0.9459779059604756,1159.986098581801,0.9247999999999998,6.8000820000000015,13.903835999999998,3.0,-1.0
Ba8(MnN3)3,mp-1246254,14,-6.532486876875,5.270930958961278,-0.8120300898942752,1750.9644257903306,0.007699999999999819,8.070229515035093,19.920770138189237,3.0,-1.0
Ba11(CN5)2,mp-1246400,136,-5.85412129673913,4.931446619507582,-0.676427279078261,1127.8153229781185,0.3765000000000001,4.14975239,16.4857194,3.0,-1.0
In2Ge5N8,mp-1246555,61,-6.285310520833334,5.477756337180241,-0.1360915717693331,1709.454231098681,0.21980000000000025,10.42538909,14.37718798,3.0,-1.0
Sr7SnN6,mp-1246791,60,-5.217199689285715,4.7707809474024785,-0.6778587068533335,1136.2078233394795,0.9343,6.720041,14.105078,3.0,-1.0
Ba7HfN6,mp-1246932,60,-5.878062544464287,5.9693960253376375,-0.7991469883414288,1361.7455323314489,1.0086,7.275755,14.957082999999999,3.0,-1.0
Si5(PbN4)2,mp-1246988,61,-7.46691845725,5.889008768219023,-0.9221423411859992,1504.3375385050824,1.6458000000000004,9.892656,13.874270000000001,3.0,-1.0
Cd2Si5N8,mp-1247495,61,-7.1073441273333335,4.491692136983984,-0.9345356526026658,1411.6380553035447,1.6566999999999998,9.67509717,13.61881982,3.0,-1.0
BaNa,mp-1247744,227,-1.6363862716666666,2.6014701465541745,-0.019574748333333208,1227.9776130730775,0.0,12.01992660251085,12.01992660251085,3.0,-1.0
Y8Cu3(SiSe7)3,mp-1259975,4,-5.5542538939999995,5.246741318255992,-1.1622689795014889,1673.7877269583844,0.0,10.272094000000001,18.244304,3.0,-1.0
CoBi6(SO8)2,mp-1282897,5,-5.9714128813,7.164211978055046,-1.83336684575,1513.9440436774905,0.02700000000000013,5.67717301398055,17.788726289495234,3.0,-1.0
Li12Si7,mp-1314,62,-3.4525426721710524,1.5518017566806517,-0.2481072753289474,2396.0231137480428,0.0,8.531238,19.622662,3.0,-1.0
BaZnSnS4,mp-13593,43,-4.434147675178571,3.822013019892745,-1.4226839948214285,1563.0598380439326,2.2711,12.615632250295505,15.596724734755053,3.0,-1.0
BaCdGeS4,mp-13831,43,-4.422244449464285,3.8419940596668387,-1.3712661762499998,1558.1533802983136,2.6727,12.609243110415347,15.516243686600244,3.0,-1.0
Ca(GaSe2)2,mp-13873,70,-4.151599690357143,4.501234839054959,-1.0022515766964284,1461.9477607348165,2.2627,12.432719314318488,15.0914258623531,3.0,-1.0
K4Sn23,mp-13909,223,-3.7005765727777775,4.73143882327974,-0.12051181525925905,2026.2405695601042,0.0,12.654073,12.654073,3.0,-1.0
Ag2PSe3,mp-13956,19,-3.698533621041667,5.605577976817467,-0.10417823753100207,1146.0304140560113,0.8682000000000003,6.6312619999999995,14.701324,3.0,-1.0
Ba4SiAs4,mp-14001,218,-4.5261729294444475,4.747380556698454,-0.9997650450000002,2454.280496093173,0.9853,13.488844,13.488844,3.0,-1.0
Ba4GeAs4,mp-14002,218,-4.3998986248611125,4.899503510116262,-0.9626336476388891,2498.881648987549,0.8241999999999998,13.570064000000002,13.570064000000002,3.0,-1.0
Sr4GeP4,mp-14213,218,-4.615568264722223,3.653047730925581,-0.9451131187169316,1989.2208897953296,1.0529000000000002,12.576535,12.576535,3.0,-1.0
Ba4SiP4,mp-14214,218,-4.832435976944447,4.110739059716617,-0.9708425563095244,2266.292292449169,1.0893000000000002,13.135259,13.135259,3.0,-1.0
Ba4GeP4,mp-14215,218,-4.678488492083334,4.284293261651865,-0.9060379786706352,2312.636307774129,1.0183000000000004,13.224191000000001,13.224191000000001,3.0,-1.0
Rb7NaGe8,mp-14407,205,-2.97673009046875,3.3458964423058526,-0.15406674270833332,2386.9312785815478,1.3385000000000002,13.364313000000001,13.364313000000001,3.0,-1.0
K5TlO4,mp-14439,61,-3.90039612725,3.5015627710369204,-1.4107651682499998,1759.8501982916587,1.4852,6.949116,20.986977,3.0,-1.0
Ti(TlS2)2,mp-14441,61,-4.887137042857144,5.3998029309117985,-1.0998859794047624,1438.9246200735886,1.2063,6.492839,23.115073000000002,3.0,-1.0
Al7Te10,mp-14506,155,-3.8257546105882345,4.214036618024355,-0.4344581335294113,1154.4632199128516,1.3853999999999995,10.49046582851043,10.4904659940016,3.0,-1.0
Rb4Ta2S11,mp-14577,29,-5.236270191470588,3.4573677802135734,-1.3632948923161772,2029.6707544717933,1.7128,7.843736,18.669585,3.0,-1.0
Cs4Ta2S11,mp-14578,29,-5.237961396764706,3.739069204130296,-1.3850170859470083,2213.8321080370265,1.7668,8.166372,18.936491,3.0,-1.0
P4S3,mp-1468,62,-5.01244677625,1.5638993484390364,-0.4307163410586737,1869.5224765642429,2.8693,10.582652000000001,15.276872000000001,0.0,1.0
Sr2Ga2S5,mp-14680,61,-4.721778525833333,3.630780754728872,-1.7439893207175932,1737.9718046316113,2.5154,11.307023,12.653661,3.0,-1.0
Ba3WN4,mp-14743,61,-7.41252672640625,6.008845190474376,-1.0969107625962504,1441.1005150782535,1.965,10.562649,12.422177,3.0,-1.0
Rb4Tc6S13,mp-14858,15,-6.029385808043479,3.7966799094365062,-1.1930934593749989,1178.016011391912,0.9691999999999998,9.805347081010543,14.231666068570645,3.0,-1.0
K9Fe2S7,mp-14889,198,-4.079081095694445,2.198930526881462,-1.2321630206319452,2078.2833870634004,0.5159,12.761496000000001,12.761496000000001,3.0,-1.0
Rb9Fe2S7,mp-14890,198,-3.8348452934722217,3.141241136815749,-1.052859655659722,2337.274232859529,0.5314999999999999,13.270987,13.270987,3.0,-1.0
Sb2(PSe3)3,mp-15046,14,-4.130292922678572,4.315280186659839,-0.1330741110220021,1611.6861998289762,1.4599000000000002,7.711956,23.875054043744004,2.0,1.0
Ag7AsS6,mp-15077,198,-3.587730385535714,5.62606129032458,-0.35023398342261913,1207.0375974621934,0.5009999999999999,10.647319,10.647319,3.0,-1.0
K4Nb2S11,mp-15148,29,-5.0231375605882365,2.4440822372811333,-1.3262496544926472,1888.5508591770706,1.3943,7.574753,18.423132,3.0,-1.0
K2GaAs2,mp-15415,14,-3.4042093660000003,3.0015795501567166,-0.4907833246999999,1317.8308386446374,1.0264,9.052627000000001,14.573395999999999,3.0,-1.0
Rb2GaAs2,mp-15416,14,-3.3375929102499997,3.5931294490880172,-0.4761128187500002,1443.740903110971,0.8805999999999998,9.235978999999999,14.923858,3.0,-1.0
K2GaP2,mp-15417,14,-3.67815510125,2.3217552268096595,-0.4630620773785722,1200.7900029181026,1.2482,8.752156,14.101976,3.0,-1.0
Na2Ga2As3,mp-15431,14,-3.648427849107143,4.11725666777572,-0.4108777557738098,1323.4775227918608,1.0235000000000003,6.8034,14.590392026980116,3.0,-1.0
K2Ga2As3,mp-15432,14,-3.6452434269642855,3.8402720781094897,-0.4660514106785715,1530.3806732664273,1.0329000000000002,6.8624279999999995,15.92125703396503,3.0,-1.0
K2Ga2Sb3,mp-15433,14,-3.3054454883928566,4.159090735587852,-0.3534465428214289,1861.8795532812185,0.9068999999999998,7.344803,16.89268948850079,3.0,-1.0
Sr4TiP4,mp-15500,218,-5.149847685416667,3.4259144930352536,-1.1157854103373015,2025.043706579792,1.432,12.651581,12.651581,3.0,-1.0
Sr4TiAs4,mp-15501,218,-4.823641697916667,4.235582116896508,-1.1247649590277773,2189.284397755325,1.3504999999999998,12.984764,12.984764,3.0,-1.0
Ba4TiP4,mp-15502,218,-5.206705129166667,4.092482616456044,-1.070647486679894,2340.6134548148984,1.0679000000000003,13.277304,13.277304,3.0,-1.0
Ba4TiAs4,mp-15503,218,-4.9076984901388885,4.729596445482625,-1.1068263838425925,2519.070553595358,1.036,13.606511,13.606511,3.0,-1.0
KSb5S8,mp-15559,7,-4.30724892875,3.849075490991085,-0.7687257800357149,1560.7092385826495,0.0,8.648634,19.718865,3.0,-1.0
Ag8SnS6,mp-15645,33,-3.553601272333333,6.001684753900642,-0.3864040001388887,1299.3342134491666,0.5354000000000001,7.708146000000001,15.487287,3.0,-1.0
K3P11,mp-1568,60,-4.806635751785714,1.8724835368842885,-0.3153970863061219,1624.6601030729694,1.9334,10.738362,13.919835,3.0,-1.0
Cs5Ti6AgSe27,mp-16000,159,-4.667518000769231,4.3587064250401975,-0.8451556966564899,2431.7487375566284,0.5941999999999998,14.089579999999998,14.117084544419221,3.0,-1.0
Rb5Ti6AgSe27,mp-16001,159,-4.664669844230769,4.266829821038097,-0.8313932195499464,2299.495999586679,0.5599000000000001,13.741260658173287,14.062057999999999,3.0,-1.0
Na2Sn2Se5,mp-16167,61,-3.747462039722224,4.173371114525083,-0.6221280917650466,2158.7858789924617,1.019,11.870595,14.308674,3.0,-1.0
SnHgP14,mp-16403,62,-5.01243743515625,3.3791894783450305,-0.0062340426562501605,1479.9692266391571,1.2066999999999997,9.873273,13.507727,3.0,-1.0
Sr11Sb10,mp-16475,139,-3.8275471290476175,4.962584314331517,-0.9763896915873012,1459.8575666317993,0.0,12.822140302011476,12.822140302011476,3.0,-1.0
Al17(Re2Si)2,mp-16569,200,-5.632131280289856,5.8096714967187015,-0.22763015463768144,2160.283673182877,0.0,12.927174,12.927174,3.0,-1.0
Ca7Ge6,mp-16571,62,-3.801738235192308,3.5110095504168166,-0.5880946744230766,1355.264829312793,0.0,7.440577999999999,22.458289,3.0,-1.0
Rb2Cd3Se4,mp-16818,62,-2.924191328888889,4.6756402471753535,-0.8449265138194444,1170.5763482047093,1.4123,6.9607410000000005,14.95715,3.0,-1.0
K3Na2SnP3,mp-16847,64,-3.310837718333333,2.4336944774057327,-0.3986231945978835,1023.2107730917476,0.9684,10.605059725336488,15.151191,3.0,-1.0
Sr2Sb3,mp-16897,14,-3.95290163575,5.29350632222306,-0.7997083904166665,1356.461326981765,0.12809999999999988,6.7390929999999996,15.347868697833619,3.0,-1.0
Ba2Sb3,mp-16922,14,-4.09214711125,5.506051296483898,-0.8471580352500006,1543.9527891419266,0.2720999999999996,7.0366990000000005,16.022920914649895,3.0,-1.0
K5SnAs3,mp-16989,14,-3.0515902519444444,2.9321583035082854,-0.4361544958333329,1220.9089743347506,0.54,8.462652,17.969276219473947,3.0,-1.0
Cs6K3AlSb4,mp-17120,194,-2.489237609642857,3.7437326025823907,-0.4202953336847293,1267.4483099086826,0.6523000000000003,11.175769370527695,11.717764,3.0,-1.0
K2Hg3(GeSe4)2,mp-17307,41,-3.1947443766666668,5.0863418348522105,-0.5050652753166663,951.2862544516754,1.0497,6.843048683496047,20.467492,3.0,-1.0
Ba5Sb4,mp-17399,62,-3.9516154808333335,5.136684798501149,-1.0504089130555556,1517.6583850817096,0.2921999999999998,9.155582,18.02275,3.0,-1.0
Ba3(SnAs2)2,mp-17470,14,-4.4225289027777785,5.119824807964176,-0.8211367005555551,1231.2895573038115,0.7570000000000001,8.066997,20.155522,3.0,-1.0
Na2Al2As3,mp-17473,14,-3.9394629621428567,3.2973106667891416,-0.4969184895238093,1308.1918049517872,1.2098,6.779762,14.59357297985209,3.0,-1.0
Rb5SiAs3,mp-17490,62,-3.0894079236111107,3.4456367736097486,-0.3888146349999996,1311.2013593354245,0.3767999999999998,5.722848,15.878235,3.0,-1.0