pretty_formula,task_id,spacegroup.number,final_energy_per_atom,density,formation_energy_per_atom,volume,band_gap,min_abc,max_abc,Dimension,Dim
ClF,mp-29504,14,-2.2288974375,2.0909804552380304,-0.8916968822250002,172.9689668179998,2.0897,3.7394010000000004,7.3386580523113345,0.0,1.0
BrNO3,mp-29526,19,-5.0869483655000005,2.5879157189181594,-0.6216693387260002,364.22402882075437,2.5676,4.315049,11.580252,1.0,1.0
CsBrO4,mp-29577,141,-4.120482806666667,3.5162014266208517,-0.8679843421551722,261.4462983322639,3.1454,8.64300606298746,8.64300606298746,3.0,-1.0
Ca3AlN3,mp-29596,14,-5.977546628928572,3.0164647245229,-1.1747191956628569,416.69066193107864,2.8834,6.138909,9.855253710041259,3.0,-1.0
NaP4N7,mp-29598,15,-7.235964405833332,3.004701178077565,-0.6830393245232548,270.7215533846121,4.3009,5.182454956482787,7.561651332966432,3.0,-1.0
Na4SnS4,mp-29628,114,-3.8329078777777785,2.5552848561729973,-1.259558967870371,440.50272673501206,2.0781,7.0060160000000025,7.9293710000000015,3.0,-1.0
NaNO2,mp-2964,44,-5.7766487525,2.0499884062969245,-1.3370349170533329,55.88779902271914,2.4755,4.323015057734706,4.323015057734706,3.0,-1.0
BaSi7N10,mp-29703,7,-7.990265343333332,3.605202195179836,-1.3557714074333331,436.63740390357714,3.9124,6.7701899999999995,9.697463434942767,3.0,-1.0
B3H5,mp-29721,36,-4.659732446875,0.7625551821344527,-0.13012511944999972,326.4019902497255,3.8757,6.12233820118376,8.898042,0.0,1.0
TlClO3,mp-29738,160,-4.120622344,5.072115205708987,-0.8501222714020003,94.23296052646893,4.4344,4.574927649682124,4.574928330334804,0.0,1.0
CsMgBr3,mp-29750,194,-3.142676439,3.758600409007968,-1.6613840305862069,350.71844094465536,4.0464,6.622762,7.8197776536290995,3.0,-1.0
CsMgI3,mp-29751,194,-2.683243308,4.12800748934794,-1.269699254586207,432.7722708092228,3.1807,7.12069,8.37728644100809,3.0,-1.0
TlBrO3,mp-29798,160,-4.000538808,5.629236805581325,-0.6534236227500003,98.019158381761,3.659,4.63004023988615,4.630040771099645,0.0,1.0
SiH,mp-29803,164,-4.3734163975,1.2770575171443816,-0.0408910568099996,75.65954242971058,2.1403,3.889188339400909,5.7758400000000005,0.0,1.0
ZnCN2,mp-29826,122,-6.8619285675,3.1917088515972885,-0.2640613961899998,219.41322295124505,3.6099,6.916313165093813,6.916313165093813,3.0,-1.0
SnBr2,mp-29862,62,-3.2050903375,4.294021769192879,-0.7772820258333333,430.8222404175004,2.5562,4.312206,10.820366,1.0,1.0
AsCl3O,mp-29863,14,-3.6829963185000003,2.264378890092772,-1.149728957706,578.6860997373573,2.5362,6.701063,10.927017029698682,0.0,1.0
K2ReH9,mp-29877,189,-4.027187144166667,3.04617469571157,-0.3752742248816661,447.23241399459516,5.2334,5.607287,9.596766735970247,3.0,-1.0
IO2F,mp-29946,19,-4.0098603225,4.5610348194855925,-1.1508869009224996,259.075135405718,2.9217000000000004,5.628217,7.966098,1.0,1.0
Sr(C2N3)2,mp-29961,15,-8.148049923636364,2.130819916633928,-0.3015556346315149,342.42726163883174,4.6774,7.260224946737945,8.343084955766901,3.0,-1.0
Na3BS3,mp-29976,15,-4.242042337142856,1.9649229043544485,-1.235996905505952,297.430370196926,2.6404,6.83143938508401,8.449951686862653,3.0,-1.0
Sc(IO3)3,mp-30002,148,-5.2221524011538465,4.569537567859798,-1.4440373112499998,414.0240377787824,3.8721,7.5166144183274435,7.516614839564217,2.0,1.0
Co(NO3)2,mp-30006,148,-6.2252987799999975,2.8332374290713918,-1.0460482263622215,428.88603269352586,1.8387,7.534975149628233,7.547362332732476,3.0,-1.0
CaI2,mp-30031,164,-3.3262862966666664,3.3852585655729546,-1.6417445933333332,144.15759847606628,3.8983,4.545380389838127,8.056872,2.0,1.0
TlIO4,mp-30032,88,-4.312474258333333,5.509519730766773,-0.8344196799999999,238.27369041805198,2.0856,7.865250008654715,7.865250008654715,0.0,1.0
MgBr2,mp-30034,164,-3.1324861800000003,3.3293589886915282,-1.507775136666667,91.8275350322254,4.4603,3.884752069799565,7.026122,2.0,1.0
P2Pd3S8,mp-3006,164,-4.9000240815384615,3.0720737560524936,-0.7346289978571434,344.708998396194,1.6807,7.247051883479033,7.578778999999999,2.0,1.0
MgB9N,mp-30091,166,-6.758418339090909,2.5774709961253808,-0.4250294140799996,174.73474234044758,1.9608,7.397704679608466,7.3977050717873984,3.0,-1.0
AsCl5,mp-30106,59,-2.756089369166667,1.977334704240596,-0.9346938210500004,423.56582370697447,1.4571999999999998,6.789455,8.063464,0.0,1.0
Ba(BS2)2,mp-30126,9,-5.532775471428572,3.060678514621024,-1.3656734944047624,311.6444687025043,2.8723,6.0697587390100605,8.693241010780328,3.0,-1.0
Li4TaN3,mp-30129,73,-6.471965254375,4.862359677416221,-1.0531045469341669,342.50880285122105,2.676,8.969260775642216,8.969261568112561,3.0,-1.0
BeBr2,mp-30139,72,-3.381007663333333,2.7556871884807554,-1.0432523483333336,203.45742333408523,5.3455,7.177752916973738,7.177752916973738,1.0,1.0
GaBH6,mp-30150,15,-3.7169249316666666,1.591868367804296,-0.07368652646499996,541.8998150026906,4.8964,8.409711701497978,10.371348833153187,1.0,1.0
LiMgN,mp-30156,62,-4.585803628333333,2.356174606424196,-0.7652452602377776,127.56928287784322,2.2078,3.517405,7.203034,3.0,-1.0
Si(CN2)2,mp-30160,224,-8.367593957142857,1.2024226628381884,-0.4120562185028577,298.66408678986795,4.2782,6.684378,6.684378,3.0,-1.0
Si2CN4,mp-30161,41,-8.293521369999999,2.1819598115539343,-0.8810502999314268,189.05303898049166,4.478,5.520745,7.419059966060728,3.0,-1.0
H34C19,mp-30168,4,-5.63340921490566,0.9247965891529348,-0.2473737472279243,942.5793894137787,5.4526,7.7652009999999985,11.346379619602455,0.0,1.0
CsClO4,mp-30206,62,-4.404095709583333,3.1158151818669864,-1.215443172281839,495.326300207184,5.5054,6.146676,10.049565,3.0,-1.0
LiBH4,mp-30209,62,-4.023931545833333,0.6761836242637759,-0.4327213319966668,213.9820202645286,7.1131,4.410552,7.200417,3.0,-1.0
LiClO4,mp-30301,62,-4.4748969941666665,2.3378078695149656,-1.1173243744322219,302.2787466187022,5.7745,4.928018,8.770178999999999,3.0,-1.0
Zn3(PS4)2,mp-30311,118,-4.126490426923077,2.97220981827681,-0.8657426201648349,575.1076920690617,2.4314,7.905616,9.201905,3.0,-1.0
B5H11,mp-30529,14,-4.4554026321875,0.6585333550016433,-0.1407737491033334,657.0443221329002,4.7471999999999985,7.007060000000001,12.211032040634608,0.0,1.0
TlClO4,mp-30530,216,-4.243771656666667,4.276229672620256,-0.8107440180433331,117.98432248338251,4.6461000000000015,5.505284496731481,5.505284496731481,0.0,1.0
Tl2ZnI4,mp-30532,4,-2.3814974692857143,5.412390637229144,-0.6559117507142856,602.4348714444586,3.0119,7.95845,9.612943593270481,1.0,1.0
KAgO,mp-3074,139,-3.7723327891666663,3.875734366521373,-1.0427926494722222,279.2877095098891,1.6375,7.617408489461558,7.617408489461558,3.0,-1.0
MgPSe3,mp-30943,148,-4.105179354,3.592766365398296,-0.6049192851205355,270.0654529739835,2.2957,8.35469115240342,8.35469126420516,2.0,1.0
Ga2PdBr8,mp-30945,12,-2.92486943,3.257315863365273,-0.7129162359090906,451.2119390383821,1.6181,7.762540265898785,7.9915806588666785,0.0,1.0
GaCl3,mp-30952,12,-3.250781085,2.08457796513668,-1.55336897682,280.5278044910064,4.2785,7.285754914472076,7.445987188341451,0.0,1.0
LiHS,mp-30959,135,-3.913821700416667,1.3797567626277858,-1.0399385687761111,385.25463257475934,3.5474,6.188845,7.889857000000001,3.0,-1.0
Ba(IO3)2,mp-30991,15,-4.938674504444445,4.563503762626502,-1.5563424075000003,354.50930830775263,3.5469,7.582536455871347,8.520640098087055,3.0,-1.0
Cl2O7,mp-31050,15,-4.0274426877777785,2.033645113268169,-0.4466248839188888,298.69084066823615,3.676,7.573421650982138,9.192184977915641,0.0,1.0
Li3AlH6,mp-31096,148,-3.2517063619999997,1.0189139515664405,-0.3606299221720001,175.5273764763823,3.6591,5.600739538366788,5.600740038199416,3.0,-1.0
KAlH4,mp-31097,62,-3.2654419166666666,1.2248143772205191,-0.2962883462466663,380.2145064994344,5.0631,5.828044,8.851716,3.0,-1.0
AlBiBr6,mp-31268,2,-3.11535947125,3.8327743888053054,-0.93321329875,619.8780195418135,2.5722,8.135292,10.000047125937256,1.0,1.0
Ca(NO3)2,mp-3142,205,-6.438933869722222,2.278112679803601,-1.6184297510844448,478.4209396980975,3.6398,7.82114,7.82114,3.0,-1.0
Al2CdSe4,mp-3159,82,-4.01074001,4.257187857187697,-0.8110703913392854,188.0901995675697,2.0058,6.847876590814995,6.847876590814995,3.0,-1.0
Ga2S3,mp-32616,9,-4.354190674,3.47801024020032,-1.059158552875001,225.00858776663844,2.3169,6.431396112972673,6.553702329310738,3.0,-1.0
HBr,mp-32684,19,-2.743746775,2.4359291597374693,-0.30541517430999976,220.62618165607984,4.9181,5.847569,6.2541720000000005,0.0,1.0
CsNO2,mp-3288,152,-5.709816409166668,3.442763649451196,-1.3750150348694252,258.8809357737077,2.3904,6.076367090030027,8.096203,3.0,-1.0
H2S,mp-33024,1,-3.7785659766666666,1.112065496925855,-0.4610782467883332,203.55863146747663,4.1036,5.4592849999999995,6.165207429435037,0.0,1.0
ZnPS3,mp-3342,12,-4.221988603,2.8294605894668834,-0.8035887885892862,226.03806418074143,2.0946,6.010460420599074,7.49258834648381,2.0,1.0
Li6Br3N,mp-34326,12,-3.5443950760000003,2.5621697776430716,-1.112716175238,191.42549706279223,2.2182,5.824150922684352,6.816853205954198,3.0,-1.0
Zn(GaS2)2,mp-34467,121,-4.1322462528571435,3.7056087074453177,-1.1025470982142858,149.27384806147168,1.8997,6.578448397308973,6.578448397308973,3.0,-1.0
KNO2,mp-34857,8,-5.78491302,1.8142954770589983,-1.3963625019699997,77.8914936420346,2.5009,4.274913089284507,4.672791397775104,3.0,-1.0
Li6WN4,mp-3503,137,-6.034172120909092,4.197507930361011,-0.923121900865454,222.7335885498841,3.08,4.943421,6.7124190000000015,3.0,-1.0
LiPN2,mp-3524,122,-6.80880979875,2.874445084630143,-1.0020215229161895,76.17212043848802,4.0907,4.871810687427007,4.871810687427007,3.0,-1.0
Y(AgCl2)3,mp-35906,148,-3.767941573,3.962568983813053,-1.5192170746226672,262.00585302510564,2.971,7.3833085676851535,7.383308991887919,3.0,-1.0
SiPN3,mp-36053,9,-7.8153035000000015,2.9335046770286755,-0.8761002111422854,228.86785317555882,3.7544,5.302685307096867,9.41993379249483,3.0,-1.0
PNO,mp-36066,9,-7.363420163333332,2.6143504219176603,-1.4929456574004758,77.46432328119326,5.2455,4.6775383184724415,4.687312140734923,3.0,-1.0
BrO2F,mp-36262,9,-3.5417968825,2.931426787457507,-0.6545949796724999,148.30086339428715,2.8995,5.4007575115304896,6.699002892456236,0.0,1.0
LiGaS2,mp-3647,33,-4.3283262375,2.8347266477214617,-1.3575767117708333,329.8997983185472,2.9659000000000004,6.30037,7.937696000000001,3.0,-1.0
Sr(AsS2)2,mp-36577,1,-4.6018034271428565,3.0949756928551437,-1.0447066370238096,196.22049457898243,1.6310999999999998,5.87804,6.00892944322098,3.0,-1.0
NaHS,mp-36582,160,-3.6244263266666654,1.77006913669558,-0.948633411692778,52.59360609646564,3.1546000000000003,3.971965501416397,3.9719656201163165,3.0,-1.0
MgSiN2,mp-3677,33,-7.098594643125,3.0740862939954434,-1.365960031814999,173.72813159837426,4.0310000000000015,5.030545,6.503645,3.0,-1.0
PNO,mp-36779,1,-7.349045454166667,2.5581313064405133,-1.4785709482338103,316.66691345182977,4.9202,4.637736,9.721274504365619,3.0,-1.0
KNO3,mp-36903,11,-5.865141275,1.944216860136008,-1.5051677668259995,172.70276459440709,2.9765,4.64109,7.0400719388208675,3.0,-1.0
Ca(AlSe2)2,mp-36988,66,-4.555286445,3.7561482128831027,-1.200943952053572,362.4050504802977,2.8461,6.225204075789404,10.751292999999999,3.0,-1.0
Sr(AlTe2)2,mp-37091,97,-3.94228927,4.521575917509389,-0.8345983223809519,239.43938799307705,1.9336,6.8480590501029575,6.8480590501029575,3.0,-1.0
Li5NCl2,mp-37498,10,-3.76929256875,1.7429422003981565,-1.2686940094458334,227.924785872376,1.9964,3.659273,9.24906679462658,3.0,-1.0
KBH4,mp-37722,137,-3.951588,1.201044523677637,-0.4934651061077773,149.1555652733748,6.2677,4.727714,6.673245,3.0,-1.0
LiHS,mp-37747,54,-3.9131891341666662,1.3760933778587887,-1.0393060025261114,386.28024317347916,3.4957000000000003,3.9573,12.331037,3.0,-1.0
BaSiN2,mp-3777,64,-7.130941266875,5.1196171003850015,-1.3186339605650002,250.94944183861787,3.0106,6.449565266949782,7.652871,3.0,-1.0
LiMgN,mp-37906,216,-4.58651853,2.387696643736157,-0.7659601619044439,31.4712827595838,2.2707,3.5438593811744283,3.5438593811744283,3.0,-1.0
Li2CdCl4,mp-38008,74,-3.2344349707142857,2.8536512128280265,-1.840700770672381,312.02049111642623,3.6297,7.584549726633019,7.584549726633019,3.0,-1.0
KHS,mp-38011,160,-3.650047656666666,1.6866475325370418,-1.0423391649149998,71.0540650569105,3.2297,4.35671185893077,4.35671243457323,3.0,-1.0
Al2CdSe4,mp-3807,227,-3.964128421428572,4.851782976515487,-0.7644588027678572,330.07878445138124,1.7425000000000002,7.757305043512082,7.757305043512082,3.0,-1.0
NaClO4,mp-38103,121,-4.372657426666667,2.39323758486194,-1.1141299152655553,84.95479838876899,5.495,4.871401171062798,4.871401171062798,3.0,-1.0
RbNO3,mp-38220,167,-5.818293789,2.5916668655107404,-1.4842932557259991,188.97813053509282,3.0358,6.763999029603494,6.763999443129042,3.0,-1.0
Mg(IO3)2,mp-38322,4,-4.757538419444447,4.4253642792869945,-1.4106164091666666,280.7564736293751,3.4935,5.314413,9.505051674847538,3.0,-1.0
Li5ReN4,mp-3838,59,-6.1955729845,4.144535831343518,-0.8156699576186661,221.91517466420385,2.8489,4.924131,6.756082000000001,3.0,-1.0
Ba(AlTe2)2,mp-38394,97,-4.030849001428572,4.576343581371568,-0.8903738285714284,254.6102068426764,1.9531,7.010229278879117,7.010229278879117,3.0,-1.0
NaBH4,mp-38725,137,-3.916300918333333,1.1356633464870496,-0.4241358128299997,110.63559117595376,6.6478,4.332604,5.89382,3.0,-1.0
Li3GaN2,mp-3887,206,-4.769629151458333,3.4777300110128544,-0.659661071835,452.8759042000937,2.3783,8.379157780233227,8.379157780233227,3.0,-1.0
PNO,mp-38975,145,-7.325338312222222,2.9025594786090627,-1.4548638062893648,104.65877843998713,5.1417,4.7836115549945095,5.281207,3.0,-1.0
Mg2PN3,mp-3933,36,-6.539789458333334,3.0454757954518343,-1.127912370951904,132.60848357553712,3.5372000000000003,4.761235,5.65987906829183,3.0,-1.0
NaNO,mp-3967,14,-5.608910744166668,2.377376604036122,-1.1046474531544443,296.13048654879316,3.3960000000000004,5.146749,9.297508,3.0,-1.0
CaCN2,mp-4124,166,-7.868371400000001,2.2370024621758366,-1.084040161189999,59.46022349806631,3.6346,5.403605511301227,5.403605839942899,3.0,-1.0
Sr(NO3)2,mp-4157,205,-6.453085189722222,2.8309914297333236,-1.667705362936296,496.5321291556832,3.7326,7.9186130000000015,7.9186130000000015,3.0,-1.0
Ge2N2O,mp-4187,36,-6.710241375,4.414860799509152,-0.8309082642019995,142.39547007282664,2.639,5.176558,5.544082330791364,3.0,-1.0
BeS,mp-422,216,-4.99463759,2.355668427070277,-1.3884362240625006,28.95580068612236,3.2356,3.44680614702945,3.44680614702945,3.0,-1.0
Rb2Te,mp-441,225,-2.698564226666667,3.1080020471876995,-0.9971078683333336,159.5011904897026,1.8947,6.0873224731024385,6.0873224731024385,3.0,-1.0
Cd(GaS2)2,mp-4452,82,-4.04552952,3.819597588998236,-1.0639523439285712,165.25278217707128,2.122,6.543361476347611,6.543361476347611,3.0,-1.0
KLiTe,mp-4495,129,-3.1297231166666664,3.1346404169301105,-1.0755155354444443,183.96677308809552,2.4106,4.8685339999999995,7.761452,3.0,-1.0
NaNO3,mp-4531,167,-5.855773277000001,2.124228814745423,-1.4549491148926663,132.88301882780115,2.9609,6.543227440921261,6.543227474161968,3.0,-1.0
SrSiN2,mp-4549,14,-7.123248950625,4.221631163747095,-1.3683140384816666,226.12193135977668,2.978800000000001,5.546697,7.3780649999999985,3.0,-1.0
LiAlTe2,mp-4586,122,-3.6994522675,3.90593061342884,-0.7141771283333331,245.8309262992304,2.6599,7.494035698626474,7.494035698626474,3.0,-1.0
ZnSeO3,mp-4682,62,-4.947995821,5.305333672538702,-1.4494655222187496,240.83932921007067,3.4758,5.135797,7.810489,3.0,-1.0
Al2ZnS4,mp-4842,227,-4.6275385178571415,3.204055473417694,-1.392844983928572,256.6764163388759,2.6027000000000005,7.133461500023812,7.133461500023812,3.0,-1.0
Te2SO7,mp-4906,31,-5.6671944095,4.305945444142485,-1.7192694086875,307.9408063861344,3.2922,4.770612,9.062786000000001,2.0,1.0
Li3BN2,mp-5001,14,-5.688596894166667,1.7319052080428727,-0.9700794364877782,228.7581039912548,3.402,5.14872,7.096042999999999,3.0,-1.0
As4S5,mp-502,11,-4.496219476111111,2.761823928284377,-0.4960613700694441,553.1611866769994,2.0069,8.093877,8.477349,0.0,1.0
CsGaS2,mp-5038,15,-4.10200751625,3.3432958867184848,-1.3846381141702584,264.98571812647083,3.063,5.984430429361595,7.320036111076844,3.0,-1.0
Ni(NO3)2,mp-504722,205,-5.963365754444442,2.8452477302286123,-0.9639131024733322,426.51583265609884,3.4221,7.5274009999999985,7.5274009999999985,3.0,-1.0
LiGaTe2,mp-5048,122,-3.4346184775,4.469387747889064,-0.6287134202083333,246.59893832591263,1.9666,7.522587965479103,7.522587965479103,3.0,-1.0
CsPS3,mp-504838,71,-4.446771401,2.5884079064494494,-1.1012398341754923,333.690367210033,1.9445,7.677046596746824,7.677046596746824,3.0,-1.0
Sr(BrO3)2,mp-504910,9,-4.5415308900000015,3.704619813470954,-1.159605651574074,307.86945021997525,4.198099999999998,7.186645285285479,7.535037213668491,3.0,-1.0
KP4N7,mp-505495,62,-7.247130873124997,3.0000637314628014,-0.7112268976204751,577.9444285973193,3.7545999999999986,4.7048440000000005,12.343766,3.0,-1.0
RbP4N7,mp-505496,62,-7.227429391458332,3.47503342285055,-0.7023474888288099,587.580991481721,3.7041,4.726537,12.424636999999999,3.0,-1.0
Na6MnS4,mp-5055,186,-4.0680809227272725,2.1723636391583936,-1.2552100829231982,490.9490852859248,1.4005999999999998,6.984069,9.009457564970381,3.0,-1.0
Cs2Zn3S4,mp-505633,72,-3.42227159,4.071186343554111,-1.2598276964846744,481.5366566278425,2.6945,9.58083951136277,9.58083951136277,3.0,-1.0
NClO,mp-505727,62,-5.0140880025,1.6209155132195845,-0.5300917914633333,268.23703500393583,1.9908,4.235032,11.527286,0.0,1.0
Cs2PdC2,mp-505824,164,-5.040296888,4.34104572985297,0.04455270282758619,151.57463699707156,2.0749,5.317239,5.737264543675232,3.0,-1.0
CrO3,mp-510421,40,-6.62043992375,2.3980401680812062,-1.5261789546874995,138.48345311094684,2.3076,5.052288048909425,5.831350000000343,1.0,1.0
K3B12H12Br,mp-510549,166,-4.9579871525,1.6872607483963264,-0.5294991322299997,333.65691522501214,5.1022,6.956205994233925,6.956206205611289,3.0,-1.0
CsN3,mp-510557,140,-6.62359510375,3.1778682644490304,-0.4353903700177577,182.80852980976346,4.261,6.250288079485056,6.250288079485056,3.0,-1.0
Na2SeO4,mp-5141,70,-5.0676633564285725,3.060421557251991,-1.766537958430059,205.02894378525284,3.3408,6.029578582954946,8.223105522330902,3.0,-1.0
KNO3,mp-5158,62,-5.872640425499999,1.9904655074380813,-1.5126669173260001,337.3800002680943,2.9387,5.499059,9.297089999999999,3.0,-1.0
B8O,mp-530033,11,-7.014844978148147,2.5420993507412017,-0.6058672408796284,401.67823846374847,2.5541,5.318777,10.27196491279765,3.0,-1.0
CdPS3,mp-5328,12,-4.1544576110000015,3.165744225619315,-0.8034285665892853,251.33524758457213,2.1211,6.299474376189573,7.593021834207116,2.0,1.0
CsNaTe,mp-5339,129,-2.7976850150000003,3.775756057343144,-1.013233175421456,249.35662305209942,1.9854,5.360767,8.676949,3.0,-1.0
Zn(GaS2)2,mp-5350,82,-4.140793694285715,3.6536293821389534,-1.1110945396428569,151.397531964949,2.2764999999999995,6.4783416683977055,6.4783416683977055,3.0,-1.0
Ga2S3,mp-539,9,-4.355574077,3.4364964620091625,-1.0605419558750009,227.7267504963008,2.0264,6.580380605713472,7.1214211779477,3.0,-1.0
Cs2S,mp-540703,62,-2.9347806816666666,3.910644127936406,-1.1801824779956898,505.93667853862763,2.0952,5.438157,10.539133999999999,3.0,-1.0
OsO4,mp-540783,15,-7.182624333,4.509052699416657,-1.5406250679999989,187.24769469319926,3.2991,5.439724753897388,8.958920870488921,0.0,1.0
HgNO2,mp-541067,14,-4.8563201175,5.275218242335571,-0.66944924497,310.4944232346791,2.2563,4.661167,10.74107,0.0,1.0
Sr2Li3NbN4,mp-541568,58,-6.10948502975,4.10890573311658,-1.0077925400353336,557.6955733985552,2.1278,7.0562770000000015,9.034442,3.0,-1.0
CsCdBr3,mp-541899,194,-2.620840855,4.332299359359421,-1.2750265045862073,371.8158077199714,2.901,6.919144,7.877210025162526,3.0,-1.0
Na2CN2,mp-541989,12,-6.164678596,2.1492286091248918,-0.6124726942853329,66.44821360198415,3.0415,3.5591266509509043,5.584200789387144,3.0,-1.0
Mn(NO3)2,mp-542070,205,-6.649276095555555,2.48255045409508,-1.2204101503194618,478.7816288143818,2.7614,7.823105,7.823105,3.0,-1.0
Cd3Se3O10,mp-542117,4,-4.8722568434375,5.002100482143415,-1.3901906934082042,487.4005857803861,3.0782,5.452259,10.985335615967774,3.0,-1.0
Li3ScN2,mp-542435,206,-5.718781563125,2.4450930047224237,-1.0580845497516669,509.57832007839477,2.2440999999999995,8.715205081765315,8.715205081765315,3.0,-1.0