pretty_formula,task_id,spacegroup.number,final_energy_per_atom,density,formation_energy_per_atom,volume,band_gap,min_abc,max_abc,Dimension,Dim
LiMg2,mp-1094593,63,-1.7345299933333334,1.4228498287524098,-0.03136900444444457,129.66175885135954,0.0,5.114629,5.3647640718407175,3.0,-1.0
LiMg,mp-1094594,38,-1.7853412566666669,1.2459908261579942,-0.03073979833333358,124.92516618674796,0.0,5.078566,5.312314914701876,3.0,-1.0
LiMg3,mp-1094596,44,-1.69911307,1.508355594501853,-0.021672315833333167,87.91296176164822,0.0,6.007277378452655,6.007277378452655,3.0,-1.0
Li3Mg,mp-1094598,194,-1.8595359775,0.9377570279980564,-0.027773814999999983,159.82137112318202,0.0,4.915538,6.127263757778017,3.0,-1.0
LiMg5,mp-1094599,38,-1.691804365,1.5897090395016062,-0.04008384555555574,134.18984633610373,0.0,5.124735,8.416527710793389,3.0,-1.0
LiMg2,mp-1094600,12,-1.7261950949999998,1.4291499274841266,-0.023034106111111008,129.09017299687213,0.0,5.885791664742645,7.377049180439628,3.0,-1.0
Li2Mg,mp-1094601,12,-1.8427406316666664,1.0306079366750516,-0.03669870388888885,123.0555346601169,0.0,5.838370133506182,7.510828442512183,3.0,-1.0
LiMg3,mp-1094602,194,-1.7009760075,1.5079679216237314,-0.023535253333333284,175.87112537463773,0.0,5.1228620000000005,6.296158195513357,3.0,-1.0
LiMg3,mp-1094603,225,-1.70324563,1.5199557005373123,-0.02580487583333335,87.24202136649994,0.0,4.978290540635209,4.978290540635209,3.0,-1.0
LiMg2,mp-1094604,8,-1.7217635233333333,1.4112710333429983,-0.01860253444444441,130.725570793002,0.0,5.917687761670518,7.436102141645044,3.0,-1.0
LiMg2,mp-1094605,155,-1.7300043866666668,1.4148413231658088,-0.026843397777777927,130.39569056732478,0.0,5.893515987083517,5.893516323603849,3.0,-1.0
Mg5Ga,mp-1094606,189,-1.8690132266666664,2.4504377795852608,-0.030763934583333413,129.59919980619404,0.0,5.068372,5.433774586798574,3.0,-1.0
Li2Mg,mp-1094607,15,-1.8362872966666668,1.0398680702316043,-0.030245368888889068,121.95971229721664,0.0,5.293404110604537,6.058654685035285,3.0,-1.0
Mg3Ga,mp-1094608,44,-2.0116365175,2.8254332322626583,-0.054402604374999886,83.82996585341787,0.0,5.954376542965182,5.954376542965182,3.0,-1.0
LiMg5,mp-1094609,8,-1.6626392433333337,1.600983050340978,-0.010918723888889184,133.2448908090576,0.0,5.944380427203915,7.444231531823819,3.0,-1.0
Mg5Ga,mp-1094612,8,-1.8677818216666668,2.445799558743709,-0.029532529583333595,129.8449720762235,0.0,6.138444113691107,7.228627104000592,3.0,-1.0
Mg2Ga,mp-1094613,63,-2.127723525,3.11278771668829,-0.05150499083333345,126.25118527326458,0.0,5.322921,7.9890653591920255,3.0,-1.0
MgGa2,mp-1094616,63,-2.6121007316666667,4.724726428893487,-0.05994371333333338,115.10293211135107,0.0,4.893218,7.46434567359149,3.0,-1.0
MgGa,mp-1094617,166,-2.40068066,3.943561831849944,-0.08649288375000007,39.59292994805664,0.0,5.057948439139826,5.057948646231393,3.0,-1.0
Mg2Ga,mp-1094619,12,-2.140109121666667,3.1669748175787094,-0.06389058750000014,124.09102104462453,0.0,5.8698894254018965,7.634950582825798,3.0,-1.0
MgGa,mp-1094621,12,-2.415857785,4.009383392526082,-0.1016700087500002,77.88587524222356,0.0,5.078786132880376,5.780035991291577,3.0,-1.0
MgGa2,mp-1094622,38,-2.597541161666667,4.684978650731559,-0.04538414333333337,116.07947568869162,0.0,4.871674,7.506841310819619,3.0,-1.0
MgGa2,mp-1094624,12,-2.614609525,4.665941935912435,-0.06245250666666665,116.5530717825545,0.0,5.610549471882856,7.227689487935822,3.0,-1.0
Mg2Ga,mp-1094625,155,-2.1480277283333336,3.1692614377333315,-0.07180919416666676,124.00148945018113,0.0,5.7766282837493526,5.776628772620327,3.0,-1.0
Mg5Ga,mp-1094626,38,-1.865428283333333,2.4475786040461616,-0.02717899125000016,129.75059304903422,0.0,5.052877,8.362279283058296,3.0,-1.0
MgGa2,mp-1094629,189,-2.630635965,4.673780293631474,-0.07847894666666673,116.35760160370815,0.0,4.873449,5.2506591801902385,3.0,-1.0
MgGa2,mp-1094630,63,-2.6195910983333333,4.667683382167431,-0.06743407999999995,116.50958748986669,0.0,5.168615,5.280813310286684,3.0,-1.0
MgGa,mp-1094632,38,-2.418555138333333,3.9796149135892094,-0.10436736208333357,117.70272054798752,0.0,4.977695,7.783309591734933,3.0,-1.0
Mg3Ga,mp-1094633,225,-1.9872894075,2.78554701315274,-0.030055494374999988,85.0303262746272,0.0,4.935861305336892,4.935861305336892,3.0,-1.0
Mg2Ga,mp-1094634,15,-2.1516122916666665,3.2087336739076986,-0.07539375749999995,122.47608517080694,0.0,5.282954008278511,6.0538026197955945,3.0,-1.0
Mg2Ga,mp-1094635,12,-2.150768468333333,3.207240541074228,-0.0745499341666666,122.53310398861672,0.0,5.792833020519753,7.697453752828269,3.0,-1.0
MgGa,mp-1094637,38,-2.38655704,3.94080300828051,-0.07236926375000004,118.86194287777307,0.0,4.788207,5.391815341691331,3.0,-1.0
MgGa2,mp-1094640,12,-2.62297035,4.668362652199397,-0.07081333166666681,116.49263476422934,0.0,5.602211290360709,7.1041504326144445,3.0,-1.0
Mg2Ga,mp-1094642,63,-2.17671132,3.1874367172729663,-0.10049278583333324,123.29441290749244,0.0,5.13077,8.091443827724444,3.0,-1.0
MgGa,mp-1094643,8,-2.3866621666666665,3.9423122577081364,-0.0724743904166667,118.81643853729271,0.0,5.8279637355501785,6.809034949588232,3.0,-1.0
MgGa2,mp-1094644,155,-2.626670106666667,4.6923324908515776,-0.07451308833333344,115.89755552274117,0.0,5.738785638175815,5.738785925454358,3.0,-1.0
MgGa2,mp-1094646,12,-2.589952335,4.659000799624478,-0.037795316666666835,116.72671647394144,0.0,5.666149927388526,7.054293036245447,3.0,-1.0
MgGa,mp-1094648,38,-2.379519641666666,3.8670664086773097,-0.0653318654166668,121.12838326534187,0.0,4.995051999999999,7.783531319692688,3.0,-1.0
Mg2Ga,mp-1094649,8,-2.1366767433333336,3.1502985929528755,-0.060458209166666776,124.74790155290978,0.0,5.920755476668497,7.205706402160168,3.0,-1.0
MgGa,mp-1094650,8,-2.420282035,3.9124778758310335,-0.10609425875000007,119.72246666399384,0.0,5.549383795313674,7.406988115857416,3.0,-1.0
Mg3Ga,mp-1094652,194,-2.03899451625,2.8721159002359498,-0.08176060312499978,164.93482826527475,0.0,4.951982,6.201565394435344,3.0,-1.0
Mg2Ga,mp-1094656,189,-2.141811233333333,3.157167182216664,-0.06559269916666673,124.47650569458695,0.0,4.857629,5.4395907567574415,3.0,-1.0
Mg5Ga,mp-1094657,155,-1.871685155,2.4512274319320686,-0.03343586291666688,129.55744998284504,0.0,6.059269651979271,6.0592701160364175,3.0,-1.0
Mg2Ga,mp-1094658,63,-2.1154296466666667,3.212348621932206,-0.03921111250000001,122.33825931992796,0.0,4.976444,8.129363878252775,3.0,-1.0
MgGa2,mp-1094659,63,-2.5913288050000003,4.73299005611825,-0.03917178666666684,114.90196660917013,0.0,5.021647,7.510609322604124,3.0,-1.0
MgGa,mp-1094661,5,-2.403421955,3.970464505340773,-0.08923417875000024,117.9739804833218,0.0,5.305413018464255,5.629504987353684,3.0,-1.0
LiMg3,mp-1094665,187,-1.6967880975,1.5159635144853785,-0.01934734333333332,87.47176725254131,0.0,3.1683109118691304,10.061941000000001,3.0,-1.0
Mg3Al,mp-1094666,225,-2.0882992975,1.9931754183047965,0.04830469749999988,83.22504052578482,0.0,4.900679914545736,4.900679914545736,3.0,-1.0
MgGa,mp-1094667,8,-2.3755483,3.889992665247752,-0.061360523750000034,120.41449492886422,0.0,5.767120296753397,7.146195503073857,3.0,-1.0
LiMg3,mp-1094670,221,-1.69729042,1.5266277726676118,-0.019849665833333363,86.86073322948845,0.0,4.428682,4.428682,3.0,-1.0
Mg2Ga,mp-1094671,63,-2.1508243116666668,3.1607883628638023,-0.07460577750000012,124.33389826197912,0.0,4.945901,5.572825332872816,2.0,1.0
LiMg,mp-1094673,123,-1.81388677,1.279761773169139,-0.05928531166666672,40.54286099396268,0.0,3.3781849999999998,3.55261,3.0,-1.0
Mg2Ga,mp-1094674,12,-2.1443062116666667,3.1560669440694835,-0.06808767750000004,124.5198995143062,0.0,5.978725057924137,6.88475644714764,2.0,1.0
LiMg,mp-1094675,51,-1.792243545,1.2449686878033086,-0.037642086666666685,83.35182110729663,0.0,3.053635,5.414428,3.0,-1.0
Mg3Bi,mp-1094676,139,-2.24068903,4.7064839298787735,-0.067970415,99.45817968763164,0.0,5.673931139893045,5.673931139893045,3.0,-1.0
MgGa2,mp-1094682,15,-2.637682073333333,4.688824440965244,-0.08552505500000003,115.98426689604956,0.0,5.278206486608875,6.525261731037997,3.0,-1.0
Mg16Al13,mp-1094683,217,-2.5248807572413794,2.1068562440293888,0.0370836079310345,582.9544002774694,0.0,9.114905250475564,9.114905250475564,3.0,-1.0
Mg16Al13,mp-1094685,8,-2.5342024444827587,2.125327698996287,0.027761920689655016,577.8878799674176,0.0,9.046380848608852,9.103366685054766,3.0,-1.0
Mg16Al13,mp-1094692,160,-2.5306101393103453,2.1322227325560057,0.03135422586206887,576.0191463378153,0.0,9.107303241052756,9.107303609784841,3.0,-1.0
Mg2Cd,mp-1094697,63,-1.4404131299999998,4.0652378093036186,-0.06592984333333322,131.54539713818193,0.0,5.1433290000000005,5.442806769580654,3.0,-1.0
Mg18Al11,mp-1094700,8,-2.37309063,2.062543036468907,0.0409223020689657,591.1693006315845,0.0,9.12930314305517,9.17363338553798,3.0,-1.0
YMg,mp-1094701,51,-4.1403045175,3.423808944015959,-0.1069289358333334,109.81397750978964,0.0,3.763643,5.411974,3.0,-1.0
Ca5Mg,mp-1094702,189,-1.9304577516666663,1.6354707359913685,0.0075888233333335125,228.1391023138773,0.0,6.165211,6.536730660188622,3.0,-1.0
Mg5Cd,mp-1094704,8,-1.5119510500000002,2.895446802835937,-0.024569381666666786,134.16232227221778,0.0,6.02776433963414,7.454802982772652,3.0,-1.0
Mg5Bi,mp-1094714,38,-2.0096473033333333,3.716028095791097,-0.027741543333333386,147.68917625888486,0.0,5.535483999999999,8.400308754430876,3.0,-1.0
Mg3Sb,mp-1094724,221,-2.400995885,3.4941283891103763,-0.16853553749999994,92.51676148988336,0.0,4.522794,4.522794,3.0,-1.0
MgGa,mp-1094729,59,-2.3933594025,3.8734633172550814,-0.07917162624999996,80.61889558045996,0.0,3.250597,5.134092,3.0,-1.0
CaMg3,mp-1094734,225,-1.7510994725,1.7850745722422157,-0.04948946499999996,105.1100574003776,0.0,5.297281965977647,5.297281965977647,3.0,-1.0
Ca3Mg,mp-1094735,139,-1.9038472075,1.6426502972361952,0.00042271500000024,146.11305677850325,0.0,6.4601173738815305,6.4601173738815305,3.0,-1.0
MgSn,mp-1094736,59,-2.87256638,4.750574898702952,-0.06764042749999978,99.98031803461876,0.0,3.499421,5.723095,3.0,-1.0
MgZr,mp-1094743,221,-4.986195795,4.373852299203338,0.0877945449999995,43.86074441978153,0.0,3.52662,3.52662,3.0,-1.0
Mg2Cd,mp-1094747,189,-1.4251752466666667,4.050665381564832,-0.05069195999999998,132.0186368688421,0.0,5.1975190000000016,5.415695727051512,3.0,-1.0
Y3Mg,mp-1094769,221,-5.2253394775,3.994274443577325,0.02458386999999896,120.98675751076904,0.0,4.945907,4.945907,3.0,-1.0
Mg2Cd,mp-1094776,12,-1.432605895,4.0458104237121235,-0.05812260833333335,132.17705875485376,0.0,6.013369099666676,7.383466852891398,3.0,-1.0
MgZn,mp-1094779,221,-1.508155975,4.1537157392592,-0.078144145,35.865141278907366,0.0,3.297799,3.297799,3.0,-1.0
Sr3Mg,mp-1094786,221,-1.6274622775,2.643531743250926,0.03971867500000004,180.38319467039062,0.0,5.65022,5.65022,3.0,-1.0
Mg3Zn,mp-1094789,187,-1.5196007125,2.7932891872269194,-0.004454772499999926,82.23008448201851,0.0,3.1516052563271626,9.559527000000001,3.0,-1.0
Mg3Zn,mp-1094791,221,-1.5346974125,2.7820502116881705,-0.01955147249999989,82.56227902838576,0.0,4.354389,4.354389,3.0,-1.0
Mg3Zr,mp-1094792,221,-3.3009947025,3.0716015084363497,0.03614049249999995,88.73521552325589,0.0,4.460312999999998,4.460312999999998,3.0,-1.0
Mg5Cd,mp-1094796,155,-1.5174620733333333,2.8470885423768704,-0.03008040499999994,136.44109106625635,0.0,6.321700695665053,6.321700856239325,3.0,-1.0
MgGa,mp-1094849,221,-2.440367895,4.095166572756919,-0.12618011875000024,38.127183493088346,0.0,3.3657220000000003,3.3657220000000003,3.0,-1.0
MgGa,mp-1094850,187,-2.40768847,3.903927390437597,-0.09350069375000024,39.994895329434684,0.0,3.1387269749987814,4.687775,3.0,-1.0
CaMg,mp-1094852,51,-1.8593296025,1.7399798923797,-0.0563896374999997,122.88703702051485,0.0,3.5779870000000003,5.9943940000000016,3.0,-1.0
LiMg,mp-1094853,164,-1.7608122875,1.1973184873654608,-0.006210829166666709,86.66900949495908,0.0,3.135644553196041,10.178402,3.0,-1.0
Mg3Ga,mp-1094854,187,-1.9928613725,2.7814254502914117,-0.035627459374999886,85.15632563758817,0.0,3.1714789195517277,9.77603,3.0,-1.0
Ca3Mg,mp-1094857,221,-1.9156403925,1.6499230401604446,-0.011370469999999909,145.46900085955386,0.0,5.259246,5.259246,3.0,-1.0
MgZn,mp-1094862,123,-1.49808217,4.163097853250339,-0.06807034000000001,35.78431424681532,0.0,3.055511,3.832878,3.0,-1.0
MgGa,mp-1094863,51,-2.4382061175,4.006500747616673,-0.12401834125000022,77.94191350002629,0.0,3.348131,4.904365,3.0,-1.0
MgTi3,mp-1094865,187,-6.23341672,3.7832641255842177,0.08827230499999937,73.69680341138873,0.0,2.9582216518283415,9.724260000000001,3.0,-1.0
SrMg,mp-1094880,51,-1.675944245,2.533993550143777,-0.031063593333333195,146.69006163702326,0.0,4.009475,6.116758,3.0,-1.0
MgZr,mp-1094882,187,-5.01080751,4.282495518215638,0.06318282999999969,44.79640831128396,0.0,3.0579680242834457,5.531548,3.0,-1.0
MgGa,mp-1094883,123,-2.445643765,4.049310497801024,-0.13145598874999995,38.55895156448364,0.0,3.1112509999999998,3.9834110000000003,3.0,-1.0
LiMg,mp-1094889,221,-1.814557735,1.294794497528292,-0.059956276666666586,40.07215336026702,0.0,3.422007,3.422007,3.0,-1.0
Ca5Mg,mp-1094906,38,-1.9234306316666665,1.610979950593479,0.014615943333333568,231.6073675729067,0.0,6.146655,10.007907825331127,3.0,-1.0
Mg2Cd,mp-1094907,155,-1.435843265,4.033989477730509,-0.06135997833333325,132.56438199408757,0.0,6.0886125179217965,6.088612602644793,3.0,-1.0
Mg2Cd,mp-1094909,63,-1.4715861533333332,4.055133431911637,-0.0971028666666666,131.8731753381303,0.0,5.085269,8.226668418947005,3.0,-1.0
Mg2Cd,mp-1094911,8,-1.4190518333333333,4.016245391739367,-0.044568546666666535,133.1500617930122,0.0,5.965277166638613,7.358235593515609,3.0,-1.0
CaMg3,mp-1094922,221,-1.7311942325,1.7379225414801225,-0.02958422500000002,107.96182584324906,0.0,4.761642,4.761642,3.0,-1.0
Mg2Cd,mp-1094927,38,-1.4535723483333334,4.022866088132288,-0.07908906166666678,132.93092794303624,0.0,5.048287999999999,8.374109920987724,3.0,-1.0
Mg2Cd,mp-1094936,63,-1.4625812816666668,4.040322589082497,-0.08809799500000004,132.3565904195375,0.0,5.092442,8.244517367219018,3.0,-1.0
Mg5Cd,mp-1094951,38,-1.5470696616666666,2.8850413590990587,-0.05968799333333319,134.64620389547756,0.0,5.113424,8.357435902116451,3.0,-1.0
MgZn,mp-1094956,59,-1.447040565,4.001788679790842,-0.017028735000000017,74.45350753940293,0.0,3.028202,4.982497,3.0,-1.0
Mg3Al,mp-1094961,139,-2.1197244125,1.9672357294747789,0.016879582499999657,84.32243400118745,0.0,5.374048737038399,5.374048737038399,3.0,-1.0
Y3Mg,mp-1094968,25,-5.21043814,3.962593365400241,0.0394852074999994,121.95405104044552,0.0,3.5634050000000004,6.081947,3.0,-1.0
Mg3Al,mp-1094970,194,-2.1293303075,1.9854988070902941,0.0072736874999996814,167.09363346988002,0.0,5.096382,6.15295359096142,3.0,-1.0
MgGa3,mp-1094971,187,-2.68052156,4.8943446717452,-0.009379920624999816,79.21238164396111,0.0,3.2122843912960133,8.864097000000003,3.0,-1.0
MgZr,mp-1094974,123,-4.997460965,4.317187309263328,0.07652937499999979,44.43643605956178,0.0,3.156415,4.460166,3.0,-1.0
LiMg,mp-1094982,187,-1.784990765,1.2282915693390943,-0.030389306666666727,42.24176487908439,0.0,3.0915084641871835,5.103529,3.0,-1.0
Mg5Bi,mp-1094983,189,-2.0019818183333333,3.702529547145992,-0.020076058333333258,148.22761612943847,0.0,5.055779,5.818421773154813,3.0,-1.0
Mg2Cd,mp-1094985,15,-1.4448841116666669,4.049796866504591,-0.07040082500000011,132.04694944306058,0.0,5.4698446700107475,6.20251635930789,3.0,-1.0
MgAl,mp-1094987,51,-2.64354515,2.203280404017903,0.029382790000000106,77.30591238471966,0.0,3.132483,5.15696,3.0,-1.0
Ca3Mg,mp-1094989,194,-1.91261705125,1.6671894864834491,-0.008347128749999877,287.92486768081613,0.0,6.015978,7.433975941869061,3.0,-1.0
CaMg,mp-1094998,123,-1.88164681,1.7086884228965866,-0.07870684499999969,62.56874295646718,0.0,3.840635,4.036242,3.0,-1.0
Ca2Mg,mp-1095005,12,-1.8988412883333328,1.6485781621615796,-0.028348018333333037,210.4377886562121,0.0,6.6350846099166665,9.44650820416454,2.0,1.0
CaMg2,mp-1095016,139,-1.7908884799999998,1.7283911512672003,-0.055501819999999626,85.2063426908008,0.0,6.264241824293424,6.264241824293424,3.0,-1.0
Ti4H5,mp-1095024,111,-5.78619845,3.9762331801721738,-0.4772371862703698,82.06478291184708,0.0,4.221545,4.604833999999999,3.0,-1.0
Y2CrH6,mp-1095185,225,-5.258520892222221,4.570004513015378,-0.5891420405614815,85.6995154107005,0.3476999999999997,4.948775903588482,4.948775903588482,3.0,-1.0
CaNiGeH,mp-1095188,129,-4.46981117875,4.551071548581586,-0.5576859096549995,125.82050044746971,0.0,4.016255999999999,7.800252,3.0,-1.0
Si,mp-1095269,63,-5.329035795833334,2.1221772196529938,0.09627822416666612,263.7125845462809,0.6206000000000005,5.7114026581786375,12.727496,3.0,-1.0
GeP,mp-1095275,12,-5.0007589425,3.937562446040862,0.01739791571428621,262.17443201906605,0.8479999999999999,7.9747132135444225,9.395625273323166,2.0,1.0
LiCaAs,mp-1095289,62,-3.916500430833333,3.2461503986332767,-1.0586200469444442,249.51047270009042,1.1092000000000004,4.338017,7.922672,3.0,-1.0
KFe2Se3,mp-1095516,63,-5.255475793333333,4.612686560135475,-0.4991192700052085,279.11645356345304,0.0,5.3594610000000005,7.3094685850955,3.0,-1.0
KF5,mp-1095521,88,-2.3884801166666665,2.1592920214384894,-1.019621847325,206.23630890128948,0.0,7.89693431781321,7.89693431781321,3.0,-1.0
AgBrO2,mp-1096805,1,-3.7403688175,3.090846976931512,-0.2220104472916664,118.07065633771587,0.0,4.556272,6.552703840351706,2.0,1.0
Ba,mp-1096840,63,-1.918899685,3.514308831818658,7.114499999993917e-05,129.77621450586562,0.0,4.3839591820692165,7.278134,3.0,-1.0
Cs,mp-1096915,12,-0.85318659,1.908856274035876,0.04221578206896559,115.61619281972685,0.0,5.110058106603583,5.285245185187249,3.0,-1.0
H2,mp-1096977,123,-3.00810299,0.2486729532498795,4.440892098500626e-16,6.730622389427931,0.0,0.985799,2.612964,1.0,1.0
IN2,mp-1097011,140,-5.90862217,3.447920921263097,-0.09896983991999993,149.21872115049626,0.0,7.1587787529610125,7.1587787529610125,2.0,1.0
Li(CoS2)2,mp-1097024,227,-5.211227230714286,3.7831346980096447,-0.923010384404762,222.1587763177375,0.0,6.798182577083527,6.798182577083527,3.0,-1.0
Sr2Mg,mp-1097933,12,-1.6801696666666668,2.5779430614219914,-0.02042214777777781,257.0671734401484,0.0,7.835176513394447,8.453797352738293,2.0,1.0
Mg14GaNi,mp-1099077,38,-1.95857127,2.3338350666875933,-0.007811714843749985,333.4734696092788,0.0,6.214568059103224,9.926219,3.0,-1.0
Mg14CoSn,mp-1099087,187,-2.056248636875,2.5170962441935223,0.0388645099999998,341.6695310674036,0.0,6.205821564073689,10.244176,3.0,-1.0
Mg6CdSn,mp-1099299,38,-1.87165245875,3.432668996337232,-0.05488471937500017,182.3484473340821,0.0,5.209601999999999,6.407337274517473,3.0,-1.0
LiMg6Ga,mp-1099313,38,-1.882960605,2.1774441417850787,-0.0656232713541669,169.67598479068917,0.0,5.06128,6.2243958095083425,3.0,-1.0
Mg,mp-110,229,-1.57447816,1.760289333302702,0.0258018900000001,22.92770924083804,0.0,3.099756067511603,3.099756067511603,3.0,-1.0
YMg3,mp-1100166,123,-2.876288175,2.647326144991516,-0.0594603591666667,101.50235690596399,0.0,3.9682169999999997,5.057551999999999,3.0,-1.0
LiMg,mp-1100190,8,-1.78385512,1.2399865696506382,-0.029253661666666982,125.53007817560976,0.0,5.832647061625793,7.420962526771375,3.0,-1.0
YMg5,mp-1100191,8,-2.403346533333333,2.3386775964587203,0.007965360555555634,149.41291940879645,0.0,6.467277333993418,7.595640489000647,3.0,-1.0
LiSiB,mp-1100392,216,-4.809962153333333,2.4218827333023243,-0.13875260083333352,31.42801194238336,0.28749999999999964,3.5422344497912617,3.5422344497912617,3.0,-1.0
LiBeSb,mp-1100398,216,-3.52107545,4.446927738460479,-0.2619631261111112,51.423844088809965,1.0104999999999995,4.174071128334063,4.174071128334063,3.0,-1.0
Sr2Mg,mp-1100783,140,-1.6732303766666667,2.489763578604956,-0.013482857777777763,266.17167259740995,0.0,7.127097017059399,7.127097017059399,3.0,-1.0
CsZn4P3,mp-1101093,123,-3.07639691125,4.623105198554883,-0.3046176117056647,175.08814639298473,0.3725000000000001,4.101178,10.409730999999999,3.0,-1.0
WN2,mp-1101173,122,-10.08496382,4.818044096286074,-0.4639402049199989,146.03056346587186,0.9543,5.958455188771751,5.958455188771751,3.0,-1.0