pretty_formula,task_id,spacegroup.number,final_energy_per_atom,density,formation_energy_per_atom,volume,band_gap,min_abc,max_abc,Dimension,Dim
Ba2NbN3,mp-17024,15,-7.469539027083332,5.441966151039376,-1.17009514994,499.9107815669754,2.0178000000000003,6.7445518073556965,13.381797196780596,3.0,-1.0
RbMo6Se7,mp-17030,148,-7.096919309642857,5.897015036833742,-0.6307926956361598,683.6029650374987,0.0,10.024501815873595,10.024501968442372,3.0,-1.0
CsCuSe4,mp-17095,19,-3.58746211875,4.534886034747414,-0.4244196266343388,750.3429747491472,1.2331,5.590278,14.53674,3.0,-1.0
K3Ge4Au,mp-17112,59,-3.407357655,3.9674066389340057,-0.2702089298749999,506.2902641422973,1.348,6.195277,12.175782,3.0,-1.0
Y3Ge5,mp-17118,43,-6.035489978125,5.995558827989362,-0.7211709012499998,348.9258401164719,0.0,7.488374913179495,11.120457443996491,3.0,-1.0
Tl2TeS3,mp-17172,62,-3.590739482083333,5.701471747341468,-0.5431434003124996,736.9277936496228,1.3386999999999998,6.23883,13.394135999999998,1.0,1.0
K3(Cu4S3)2,mp-17174,12,-4.077741235882352,4.295005680069052,-0.7269889181029411,316.27636845723185,0.0,8.879285756376412,9.870586326033576,3.0,-1.0
Ca4Si3Pd4,mp-17185,15,-4.902915931363637,4.992767252472325,-0.8103824022727271,445.8344490338205,0.0,7.87657133516075,10.882757076564973,3.0,-1.0
Tl4GeS4,mp-17207,9,-3.8160645083333335,6.1527301270112575,-0.7092201480555558,549.7228321125605,1.964,7.834232291374568,8.772344469809937,1.0,1.0
K2Ni3S4,mp-17228,70,-4.737785873333333,3.325506881100865,-1.0207672731666666,382.0273561435967,0.7795000000000001,5.814097337084494,14.073059804803396,3.0,-1.0
BaCu2GeSe4,mp-17252,152,-4.306572227916667,5.2601273399086965,-0.7160649859635418,618.3296863282168,0.3642000000000003,6.597206874686438,16.404738000000002,3.0,-1.0
TlGaSe2,mp-17254,15,-3.6764808715625,5.968784990715848,-0.5810880121093751,961.5310989617177,1.3725999999999998,7.791384998560204,16.0596022906888,3.0,-1.0
SrCu2SnS4,mp-17322,154,-4.579262140416667,4.228681549103496,-1.1055839009375006,543.8865436735617,0.4112,6.347065657490004,15.589482,3.0,-1.0
ZrSnS3,mp-17324,62,-6.089668769,3.9985332635710003,-1.494420351875,508.5256321866436,1.0325000000000002,3.7538709999999997,14.151665,1.0,1.0
Ba5Sn3,mp-17325,140,-3.32320738,4.856525305909915,-0.6202611656250001,713.0826715454442,0.0,10.807527019569692,10.807527019569692,3.0,-1.0
Mn2SiSe4,mp-17367,62,-5.815721162142857,4.568849281864373,-0.4253821805264784,659.7330944326521,0.0,6.273692,13.41942,3.0,-1.0
Y3Ge4,mp-17381,63,-6.218060123571428,5.891105822115848,-0.8049851578571433,314.1621185075828,0.0,5.739068283728727,14.345064,3.0,-1.0
Rb3Sn4Au,mp-17401,59,-3.110898186875,4.731864136445661,-0.3291767896874997,651.4679505104489,1.1854,6.739136,13.503125,3.0,-1.0
Ba2LiGe3,mp-17491,70,-3.8338266970833335,4.823272110638609,-0.564502015138889,687.8850314276599,0.08509999999999973,8.981626208293074,12.566421530226696,3.0,-1.0
Ba(ScTe2)2,mp-17501,62,-5.280609637857141,5.358173752532896,-1.4010221007142856,914.3996748622503,0.4310000000000001,4.321639,15.709489000000001,3.0,-1.0
GeAs2,mp-17524,55,-4.68815880125,4.730927999831477,-0.04107057958333312,624.7265572848985,0.7206000000000001,3.77233,15.530910999999998,2.0,1.0
Ca5(GaAs3)2,mp-17558,55,-4.334774090384615,4.130027534708361,-0.9471663338461536,634.7523863289242,0.12060000000000005,4.174581,13.286570000000001,3.0,-1.0
Ca5Sb3,mp-17564,62,-3.787818635625,3.7267661480117082,-0.9859432456249996,1008.1846796904747,0.2524999999999995,8.315983000000001,12.64362,3.0,-1.0
Ag3Sn2(GeP2)3,mp-17568,217,-4.531955371428571,5.3404453003011065,-0.04155462474489775,599.9749833483756,0.3411999999999997,9.202765259740305,9.202765259740305,3.0,-1.0
Ca6MnN5,mp-17577,193,-6.091021462916667,2.920218438345678,-1.0112159055462644,415.6035952548808,0.7426000000000004,6.233111708466728,12.352044,3.0,-1.0
Cu2Te3O8,mp-17598,15,-5.255991233461539,5.370634589520599,-1.2872497042307691,394.45491888459986,0.0,6.550856447753531,12.470336344724148,3.0,-1.0
Na2Cu4S3,mp-17625,12,-3.9934747277777785,4.394505030066287,-0.7217968706712965,299.5417382191207,9.999999999976694e-05,8.250622594744776,10.274525539907524,3.0,-1.0
Mg23Al30,mp-17659,148,-2.77279956264151,2.2202907639275686,0.04179885339622609,1023.4619946641388,0.0,10.329305703240902,10.329305856101078,3.0,-1.0
Sr3AlSb3,mp-17667,64,-3.905854765357143,4.4402436197198405,-0.8771371496428573,979.9956951776793,0.5370000000000004,10.888157758516774,13.638814000000002,3.0,-1.0
Cu3SbS3,mp-17691,19,-4.31208498,4.988585971883434,-0.477000572767857,544.0296249585393,1.0040000000000004,6.541462999999999,10.268644,3.0,-1.0
Ba2VN3,mp-17696,64,-7.35915283875,5.356029997877752,-1.229275456606666,455.8899524711227,1.5267,6.5735729834959615,13.08797,3.0,-1.0
Sr5Sn3,mp-17720,140,-3.19315485125,4.296218631872878,-0.6336396222916667,613.9584857629944,0.0,10.257984942412325,10.257984942412325,3.0,-1.0
RbAg2SbS4,mp-17756,154,-3.7999300891666654,4.106630202678876,-0.7166042408333334,668.6718355781599,0.7283,6.747757266831847,16.957564,3.0,-1.0
Sr5Ge3,mp-17757,140,-3.342147851875,4.084964912320664,-0.5525866229166669,533.3445265027137,0.0,9.854540897922792,9.854540897922792,3.0,-1.0
Cd4SiSe6,mp-17791,9,-3.29611041,5.173558916428244,-0.5604429621874997,610.7924976721831,1.3934,7.576010418926902,13.139062056140425,3.0,-1.0
Nb2Tl4S11,mp-17803,2,-4.9652945361764695,4.686252609710187,-0.9739939164338242,961.0204094014293,1.2182,8.158131,13.501603845327564,3.0,-1.0
Ba4Si20Au3,mp-17815,223,-4.951539313148149,4.865489257321894,-0.2847315968518516,1161.6923565739655,0.0,10.512283,10.512283,3.0,-1.0
Ca3(GeP2)2,mp-17817,14,-4.894044936111111,3.1272731285173148,-0.7922672921428568,827.0834180679199,0.7612000000000001,7.088522,17.572167999999998,3.0,-1.0
Rb3Ge4Au,mp-17830,59,-3.348932875625,4.4546225572627565,-0.2604834784375001,554.6260139705753,1.3812000000000002,6.229312,12.720927,3.0,-1.0
Ba3GeO,mp-17833,62,-4.3679753225,5.165767279769166,-1.44285415975,643.6989409047211,0.4539999999999997,7.6108850000000015,10.891077000000001,3.0,-1.0
Al7CoCu2,mp-17856,128,-4.430875193,4.243438697476166,-0.2782989985000001,586.8159674327998,0.0,6.3097080000000005,14.739522000000001,3.0,-1.0
Ag3Ge5P6,mp-17862,217,-4.6066529735714274,5.08888674159482,-0.02861565545918308,569.5016588283837,0.5766,9.044244505729983,9.044244505729983,3.0,-1.0
Mn2NbP12,mp-17867,15,-6.605355150666669,4.2440449403491005,-0.37974526281116616,449.536199051192,0.0,8.56120711847605,10.68651184846716,3.0,-1.0
Ca(Al4Co)2,mp-17871,55,-4.61823889090909,3.4691964027453817,-0.4194350627272728,715.6746972668518,0.0,3.955687,14.506041,3.0,-1.0
Ca6GaN5,mp-17875,193,-5.526038997916667,2.9723185894307367,-0.9573676878666668,424.838466894879,0.8703000000000003,6.333714671771456,12.228586,3.0,-1.0
Al13Ru4,mp-17880,12,-5.583090734705882,4.708846115989373,-0.5366175341176479,798.777485365672,0.0,8.970685816876713,12.799022334280266,3.0,-1.0
Cs2Hg6S7,mp-17905,102,-2.56796607,6.400418612023477,-0.7063783365158052,878.8896617524254,0.6230999999999998,4.2622919999999995,14.359707,3.0,-1.0
Y3CuGeSe7,mp-17916,173,-5.6479331425,5.5696088451201975,-1.2651807917838542,569.8246616109475,1.2125,6.152143,10.341703668815306,3.0,-1.0
BaCu2GeS4,mp-17947,152,-4.717827109583333,4.3664497092684,-1.1387806730208343,530.8754911051351,0.9812,6.277032716750487,15.557982999999998,3.0,-1.0
Si(Hg2S3)2,mp-17948,9,-3.1235364727272725,6.196872212312341,-0.6255387744318177,548.1663162524924,0.4445000000000001,7.3052972642717275,12.679654268777561,3.0,-1.0
BaCu2SnS4,mp-17954,152,-4.635982131666666,4.485215410128759,-1.1336176951041672,567.9870430382273,0.3935000000000004,6.4365004230893215,15.830995000000001,3.0,-1.0
Na3Hg2,mp-17974,136,-1.1271846719999998,5.396804863955903,-0.21692119599999984,578.6396302874728,0.0,7.925785,8.544427,3.0,-1.0
Ca5(GaSb3)2,mp-17985,55,-3.897135879615385,4.607652773775996,-0.7541975838461541,771.5140276404798,0.02059999999999995,4.495674,14.106276000000001,3.0,-1.0
Rb2Cu2SnS4,mp-18006,72,-4.072198226111111,4.054521496328551,-0.9543079141666672,446.4101654524343,0.8634,9.490331958059317,9.490331958059317,3.0,-1.0
ZrMnSi2,mp-18059,71,-7.807708960833334,5.706990574787703,-0.6677001757471265,353.2319753646702,0.0,9.867745953654918,9.867745953654918,3.0,-1.0
SrSn3,mp-18063,166,-3.83895475125,6.182808071648767,-0.4094055466666671,476.7181528293831,0.0,12.10527735049817,12.105277439086228,3.0,-1.0
Ag2TeO3,mp-18068,14,-4.50820574625,6.658987119565562,-0.9173041890972224,390.34548632956637,1.6645999999999996,4.975328,10.773384,3.0,-1.0
K7TaAs4,mp-18073,31,-3.650833935416667,3.1023093177425123,-0.4619136121666667,807.5157261959738,1.0401,8.418749,10.371178,3.0,-1.0
CsAgSe4,mp-18105,19,-3.3539125720833334,4.544177201841703,-0.401978524412117,813.5939008789038,1.2751,5.925247,14.465859,3.0,-1.0
Sr2Ge2Se5,mp-18112,14,-4.408725568055555,4.759741020170441,-1.0637727230613423,998.2196931191667,1.1252,8.60553,12.467744999999999,3.0,-1.0
K2WSe4,mp-18138,62,-4.9809817010714275,4.084033973405922,-0.8149002332678569,939.8420054510216,1.2241,7.286238000000001,12.88112,3.0,-1.0
Na5SiAs3,mp-18139,14,-3.3097127652777787,2.8870504494165585,-0.4234982854629629,846.1852149244673,0.7408999999999999,7.574758,15.790082740278848,3.0,-1.0
Ca(Al5Cr)2,mp-18142,129,-4.6978330425,3.212967398315936,-0.17725972557692307,855.6242245294683,0.0,5.159161,12.878105999999999,3.0,-1.0
Cd4GeSe6,mp-18163,9,-3.163817243181818,5.322976473347488,-0.5010849012784093,621.4455323385599,1.3124,7.60393291769266,13.187285790859768,3.0,-1.0
Sr3Sn5,mp-18192,63,-3.70489860875,5.533883170112071,-0.565360729375,513.961794389709,0.0,6.913751047522105,11.007254,3.0,-1.0
CsTe7Mo6,mp-18193,148,-6.674877270357142,6.504595848172213,-0.3911367659236455,817.8097332138514,0.0,10.478387212784849,10.478387366869438,3.0,-1.0
Ba3NaSi23,mp-18228,223,-4.987056447407407,3.259085389877167,-0.10358284864197476,1101.4983343231852,0.0,10.327486,10.327486,3.0,-1.0
Sr6Ga5N,mp-18290,167,-3.2933388541666666,4.346167028845234,-0.5241857524899997,678.8170300632897,0.0,14.243699592845427,14.243699703263054,3.0,-1.0
Ba3(GaN2)2,mp-18297,52,-5.510898741111111,5.913181459132421,-0.6638996027244439,682.3404781510758,1.4942000000000002,6.284779,10.645458999999999,3.0,-1.0
Ca3AlSb3,mp-18300,62,-3.999148534285714,4.043705726280378,-0.8349515071428577,841.8207663061792,0.29359999999999964,4.523918,14.348025,3.0,-1.0
Mn2MoP12,mp-18302,15,-6.628800968666668,4.387258511307773,-0.35356854814449906,437.1583564520142,0.1448999999999998,8.499024262626032,10.58746164505402,3.0,-1.0
Si3Ag3(SnP3)2,mp-18310,217,-4.79060546,4.804503081356332,-0.12828624938775487,574.5082490996895,0.3658000000000001,9.070670404901062,9.070670404901062,3.0,-1.0
Na5SnP3,mp-18317,14,-3.348470630555555,2.5872515188240204,-0.3681716835978833,838.4172381850076,0.9406,7.4929999999999986,15.743709641399008,3.0,-1.0
K7NbAs4,mp-18361,31,-3.50587731125,2.736965463360244,-0.4633297038333334,808.4759894706807,1.1283,8.416507000000001,10.372703999999999,3.0,-1.0
RbCuSe4,mp-18365,19,-3.585193875416667,4.442215424696663,-0.4079627665625001,695.065701556041,1.1610999999999998,5.570638,13.818545,3.0,-1.0
SrCo6O11,mp-18381,194,-5.899591643055558,5.806730425826467,-1.4663856330787035,353.00608422362325,0.0,5.639191042030232,12.817933,3.0,-1.0
Ga7Te10,mp-18388,155,-3.4249144482352945,5.136656574631533,-0.3290510472058828,1140.5443069067114,0.9026999999999998,10.448236927621807,10.44823747347298,3.0,-1.0
Rb7NbAs4,mp-18440,31,-3.375338843333333,3.595973858411471,-0.40854574604166655,915.1201088188304,0.7916000000000001,8.772548,10.811282,3.0,-1.0
Sr5(SnP3)2,mp-18458,55,-4.6173508480769225,4.007203088394779,-0.8522535292124539,713.8775698468633,0.3758000000000004,4.1680209999999995,13.916672,3.0,-1.0
K3Sn4Au,mp-18500,59,-3.162278389375,4.393437967044501,-0.3318576642499997,596.4958770852612,0.6134000000000004,6.666758,12.883165,3.0,-1.0
Ba(AgTe)2,mp-18501,62,-3.5622183035000003,6.512595588350034,-0.7880813641666663,620.3641081535894,1.3282999999999996,4.680023,11.932874,3.0,-1.0
Ca3(GeAs2)2,mp-18504,14,-4.5434815580555545,4.143089551458149,-0.7768894502777776,906.1231556799257,0.6217999999999999,7.3277550000000025,18.102097,3.0,-1.0
AgF3,mp-18536,178,-3.1119307704166665,4.5537794582091085,-1.3383791692258329,360.70538962992487,0.20719999999999986,5.195540323565972,15.42981,3.0,-1.0
KAg3S2,mp-18577,227,-3.3664685504166667,4.771209333259251,-0.6074607686250003,594.2080138211021,1.3365999999999998,9.436649707704637,9.436649707704637,3.0,-1.0
RbAgSe4,mp-18585,19,-3.3491985645833338,4.492912443169859,-0.3830759001736113,752.7470436780611,1.1734,5.903325,13.806951000000002,3.0,-1.0
Na4Si23,mp-186,223,-4.810115348703704,2.279891793061424,0.006211737469136046,1074.9231632661943,0.0,10.243754,10.243754,3.0,-1.0
K8SnSb4,mp-18633,227,-2.701729463076924,2.714647481589184,-0.4395165099230768,1123.7301245473077,0.31909999999999994,11.669681608983257,11.669681608983257,3.0,-1.0
Sr6GaN5,mp-18635,193,-5.16039487375,4.315787294231656,-0.7497828770333334,512.0964731654914,0.3113000000000001,6.719564756598452,13.096007,3.0,-1.0
Ba3Sn5,mp-18636,63,-3.85154350875,5.799902596242446,-0.6259470381250001,575.7763964033188,0.0,7.206770797940573,11.319272999999999,3.0,-1.0
Sc5(In2Rh)2,mp-18645,55,-5.887330637272727,6.439485921954353,-0.6693582568181807,458.9346300911631,0.0,3.3526809999999996,17.691983,3.0,-1.0
Sr(ScTe2)2,mp-18660,62,-5.217117821428571,5.210276955427882,-1.370314509523809,876.9880593156172,0.4553000000000002,4.258945,15.474038,3.0,-1.0
Al17(SiPd2)4,mp-18663,88,-4.837107087413793,5.193710827133853,-0.4641726160344829,909.5350818916014,0.0,10.647692899156981,10.647692899156981,3.0,-1.0
Ca5(SnAs3)2,mp-18670,55,-4.407714088461538,4.302287278140502,-0.86910997,684.9668447886933,0.2539999999999996,4.184659,13.449651999999999,3.0,-1.0
SrCu2GeS4,mp-18685,154,-4.674426689583333,4.0871512556822935,-1.1240664501041664,506.56796338643204,1.0573999999999997,6.1822773060905325,15.304181,3.0,-1.0
Rb2Ni3Se4,mp-18691,70,-4.333080275,4.791425681195429,-0.6347331532638891,459.444860322984,0.6545999999999998,6.154456954115854,15.053158908907893,3.0,-1.0
Y5(FeTe)2,mp-18706,63,-6.810579166666668,5.888896449925443,-0.6373610348148154,457.6047058981077,0.0,7.82780594267851,15.250442999999999,3.0,-1.0
Ba(NiO2)4,mp-18991,166,-5.003039964615383,4.5542550465193585,-1.1300521723076928,364.68252412751656,0.3353999999999999,5.734847725237524,13.223611649673623,3.0,-1.0
Ni5P4,mp-1920,186,-6.09425699,6.345927058389673,-0.4771651182539682,436.8445960650863,0.0,6.778603769468533,10.977813000000001,3.0,-1.0
GaSe,mp-1943,194,-3.85301922875,4.4080768371203165,-0.5910157386718753,224.0377735344352,1.2476999999999998,3.8176008624425366,17.750455,2.0,1.0
Ba7Al13,mp-1952,164,-3.3236851595,3.962189821562164,-0.2174210794999997,549.8748729619014,0.0,6.061702933427372,17.28001,3.0,-1.0
PbCN2,mp-19727,62,-7.286844093125,6.020154367877737,-0.07575105681499927,272.7672755007748,1.9315,3.92452,12.420916,2.0,1.0
InS,mp-19795,58,-3.93545777125,4.771415569597188,-0.8231209728124997,204.47178088912392,1.5450999999999997,4.010446,10.725346,2.0,1.0
Ba2Sn,mp-1981,62,-3.2236445650000003,4.8344480318468985,-0.607806726666667,540.4515966175377,0.015500000000000291,5.686535,10.750026,3.0,-1.0
Ba3(InP2)2,mp-19913,15,-4.445499691111111,4.561121732396655,-0.7884526471428575,557.3903685263133,1.1082,7.176909254678924,8.953616849106568,3.0,-1.0
Sr4In2N,mp-19915,141,-3.4290239492857144,4.589625387704161,-0.5413432834352382,429.91044818033583,0.0,15.8771238700366,15.8771238700366,3.0,-1.0
In4Se3,mp-19932,58,-3.4809185303571435,5.644498577429334,-0.4102800513616072,819.1959490709575,0.2263000000000001,4.178928,15.593679000000002,2.0,1.0
As2PbS4,mp-19941,62,-4.441222378214285,4.851891798704309,-0.5951019000000001,664.3717182326269,0.7964000000000002,3.7670980000000003,18.629563,3.0,-1.0
TlIn(PSe3)2,mp-19985,2,-3.969093587,4.757190800006589,-0.27755585712053515,596.8268082209767,1.4562000000000004,6.605617,12.407466295677171,2.0,1.0
TlInS2,mp-20042,194,-3.85879542375,6.401616974277236,-0.8439663128125003,198.86744291583665,0.7241999999999997,3.908520336711068,15.031707999999998,3.0,-1.0
Sc2InC,mp-20175,194,-6.70654132375,4.804792923579192,-0.5456906637499994,149.81128766284198,0.0,3.3525321047888563,15.391042,3.0,-1.0
ZrPbS3,mp-20244,62,-6.0525417390000005,5.253215994762905,-1.5166782788750006,498.95550959708845,1.2470999999999997,3.8166260000000003,14.171109,3.0,-1.0
Ti2InC,mp-20315,194,-7.61115482,6.063190559959768,-0.668792704166667,121.90745267304544,0.0,3.146612928506619,14.217167000000002,3.0,-1.0
PPbSe3,mp-20316,14,-4.237925034,5.7552548221727005,-0.31519156112053537,548.2609232155577,1.6765,7.126958,11.969084314603062,3.0,-1.0
CuSbSe2,mp-20331,62,-4.007760416875,5.8623552253768345,-0.20275270054687453,388.88136918466284,0.6071999999999997,4.034491,14.928576000000001,3.0,-1.0
Sr(InTe2)2,mp-20397,66,-3.5511501914285715,5.276565931820821,-0.7274284152380949,520.9278684144598,0.8920000000000003,6.980964102033043,12.044306,3.0,-1.0
Ca4In2N,mp-20419,141,-3.7623332228571433,3.778412210297908,-0.6940133417685713,355.06055091527196,0.0,14.989035244273861,14.989035244273861,3.0,-1.0
YCrB4,mp-20450,55,-7.79181483375,5.212714958286479,-0.6523005559722227,234.64282730064082,0.2366999999999999,3.450052,11.462204,3.0,-1.0
Ba(MgPb)2,mp-20452,129,-2.884665436,6.334922952452648,-0.3757004219999999,314.72617713195325,0.0,5.030288,12.437903,3.0,-1.0
InSe,mp-20485,194,-3.63037491,5.0781373245637225,-0.506577306171875,253.4598170011162,0.4590000000000001,4.083622527017158,17.550413,2.0,1.0
Zn3P2,mp-2071,137,-3.1094682695,4.5355735538312265,-0.18830775892857154,756.1714134094046,0.6051000000000002,8.120691,11.46659,3.0,-1.0
KTe,mp-2072,194,-2.96564707125,3.207599395777941,-0.8387971327499999,345.1915346413414,0.6708999999999998,5.658700041227138,12.447902000000001,3.0,-1.0
SrCaSn,mp-20726,62,-3.243667629166667,3.855279645450532,-0.6754499663888891,424.52962996406114,0.2999999999999998,5.187895,9.692768,3.0,-1.0
Ga2FeS4,mp-20793,164,-4.959889638571427,3.7340234342368217,-0.9001534453571435,143.88476264271392,0.44010000000000016,3.658946704013328,12.410008,2.0,1.0
InAg(PSe3)2,mp-20902,163,-3.9606617214999997,4.616860577266933,-0.22203368928720266,545.5405834723116,0.6940000000000004,6.588718721943213,14.510906,2.0,1.0
RbIn5S8,mp-20938,12,-4.068381705,4.36985977007823,-1.0310337294642855,348.1079611206262,1.5322999999999998,9.396764868530925,9.851528717729297,3.0,-1.0
NbNiP2,mp-20948,62,-7.40742749625,6.392676399497613,-0.7304241355357144,221.8811769586673,0.0,3.357803,12.206977,3.0,-1.0
Rb2Te3,mp-2095,62,-2.9836279119999998,4.37166267145346,-0.705433725,841.3271246854756,0.7366999999999999,4.729866,16.275657,3.0,-1.0
YZnSn,mp-20987,194,-4.5182942375,6.3834798469097676,-0.6063653780555557,284.08857892585337,0.0,4.511178217378028,16.119189000000002,3.0,-1.0
LiCaPb,mp-20998,187,-3.0169729933333334,5.346549492026173,-0.4745830544444441,236.86711304266296,0.0,4.989876538897931,10.984861,3.0,-1.0
BaLi4,mp-210,194,-1.9116720846666664,1.8484937099019656,-0.0007396253333335304,889.8273883504843,0.0,8.737915,10.843853966286066,3.0,-1.0
Ti3SnC2,mp-21023,194,-8.473641544166666,5.906377102492487,-0.7820399933333336,161.00094118023432,0.0,3.1502773271128053,18.732689999999998,3.0,-1.0
ScNiB4,mp-21081,55,-7.036801504166667,4.629235127526661,-0.5651060261111109,210.76663982595053,0.0,3.247071,11.221235,3.0,-1.0
SrCaPb,mp-21166,62,-3.0518645891666663,5.087232871176284,-0.5826218547222218,437.26027599567794,0.2911999999999999,5.234266000000001,9.790996,3.0,-1.0
Ba(InTe2)2,mp-21183,66,-3.6351899714285714,5.244643589678542,-0.77868397,555.574659050825,0.9664,7.154221484740948,12.425118,3.0,-1.0
Ba2Pb,mp-21246,62,-3.058141598333333,5.7870758819108605,-0.5412786883333336,553.0512526359171,0.0383,5.802975,10.827057,3.0,-1.0
InSbS3,mp-21365,62,-4.2561893155,4.405657292642169,-0.7962584013749996,501.7027245696506,1.5012,3.892727,13.508013,2.0,1.0
Mg2Ni,mp-2137,180,-3.166725901111111,3.481329006794589,-0.1731603077777777,307.0921834700119,0.0,5.194680134640151,13.140761,3.0,-1.0