pretty_formula,task_id,spacegroup.number,final_energy_per_atom,density,formation_energy_per_atom,volume,band_gap,min_abc,max_abc,Dimension,Dim
Ba3SiO,mp-755363,62,-4.419633479,4.729939862265407,-1.3340550832500009,640.443866896331,0.5076,7.53671,10.864208999999999,3.0,-1.0
K5Se3,mp-755633,87,-3.0323622925,2.727952835555706,-1.027396146503906,526.3798975382106,0.4279000000000001,9.726786529228653,9.726786529228653,3.0,-1.0
Cs3TlO3,mp-756122,14,-3.906188696428572,5.6844028302137986,-1.3654949103633005,760.8000051105985,1.5973,7.4937960000000015,12.191256654479965,3.0,-1.0
Li2(VS2)3,mp-756195,193,-6.0557796290909085,2.952110148149873,-1.336915706856061,403.9779933706282,0.0,5.596035708589161,14.895878,3.0,-1.0
Mg(NiO2)4,mp-756552,166,-4.928449463076921,4.6137041834917385,-1.0799763461538463,139.3134758958189,0.7473000000000001,10.425298480215039,14.837493000003676,3.0,-1.0
Co(NiO2)4,mp-756594,12,-5.016042810769231,5.138146258562359,-0.8880283288461547,136.28507284971428,0.31259999999999977,10.196148643294977,14.468676202698367,3.0,-1.0
Ni(TeO3)4,mp-757194,1,-5.248811293235295,5.799297587950567,-1.2995568211764703,871.7009941176436,0.2679,9.182052499691123,12.238763483137136,3.0,-1.0
Co21Cu3O32,mp-757299,160,-5.9099637580357145,5.963559551620097,-1.3013996740178584,540.2485316694,0.0,5.761179369775082,19.086965043111988,3.0,-1.0
Co25Cu11O48,mp-758061,8,-5.780340998690478,6.086406552683727,-1.2596128945833331,802.1966202183781,0.0,9.925701285277984,9.95099649638065,3.0,-1.0
Li3Ni5O8,mp-758143,12,-4.922493946458333,5.2079182392430745,-1.311695462083333,423.0664650098678,0.0,5.844788196909961,15.178433360596378,3.0,-1.0
Mg4Cu11O15,mp-758194,25,-5.273114553166668,5.554226738776452,-1.4338686997916663,619.5925700916207,0.0,4.039514,16.24109,3.0,-1.0
Li4Ni7O12,mp-758275,1,-4.846285686086956,5.0568904712592735,-1.1986059534057971,621.2237795520035,0.012700000000000156,4.9863036952288615,13.297322559627444,3.0,-1.0
Na2CdO2,mp-758413,5,-3.8740631910000003,3.954338521905168,-1.465358164833333,639.5991294962693,0.209,9.397894031725404,10.859198308303423,3.0,-1.0
Li5Ni9O16,mp-758491,2,-4.803239763666666,4.993875558975193,-1.1358900318888885,544.6171835824446,0.07059999999999977,4.97177000088409,11.275733682692714,3.0,-1.0
LiCu3(CO3)3,mp-758505,1,-6.473661159583332,3.355990549093378,-1.4675440223697909,560.5161940550444,0.0,3.252711,14.141843798221858,3.0,-1.0
Li2(NiO2)3,mp-758726,1,-4.849434539545454,4.6201610510873135,-1.2003210317424242,616.6608758607997,0.3904000000000001,5.621182,18.85606000780338,3.0,-1.0
Li8(NiO2)11,mp-758772,1,-4.826020455975611,4.703869193394872,-1.2052027309552846,743.551188983187,0.0,7.478800283553637,14.012384050867071,3.0,-1.0
Na3Cu5O4,mp-759535,14,-4.518144877291667,3.924302006640997,-1.0662572210416663,762.8361134261752,1.3018,7.0269020000000015,13.340211880392307,3.0,-1.0
Li12Ni11O28,mp-759703,1,-4.812309002745098,4.241723740457722,-1.2522460418627457,460.7307935316471,0.9800999999999996,5.83023,12.913587737964999,3.0,-1.0
Co7(SbO6)2,mp-759787,5,-6.177152391428572,5.7304170817213,-1.6130470261904766,491.4867824248298,0.5721000000000007,6.114214633997485,15.121430450026775,3.0,-1.0
Na7Ni17O24,mp-760117,2,-4.721591906875,5.461055793080139,-1.1263239834027772,469.08815421473207,0.0,5.987990892939634,14.79504240597147,3.0,-1.0
Cu3(OF)2,mp-760120,14,-4.64102891,5.30438970803736,-1.26530730784,652.7307521772296,0.0,8.03926324911145,10.371228455149033,3.0,-1.0
Na7(NiO2)10,mp-760203,2,-4.64229861,4.527960593507443,-1.1212920777927928,391.6127901052178,0.0,2.941441,12.699525805596721,3.0,-1.0
Zr6BI12,mp-760421,148,-4.981029141052632,5.194292418870897,-0.967674039429825,665.2679260216336,0.0,9.282571399118297,9.282571669387746,3.0,-1.0
Na(CuO)2,mp-760829,137,-4.7177423945,4.986569521674905,-1.1168630956666667,485.0659712958785,0.0,6.084093,13.104158,3.0,-1.0
MgAs4,mp-7623,92,-4.272843912,4.460842762053371,-0.225493178,482.4203906212378,0.8372999999999999,5.473979,16.09976,3.0,-1.0
SiC,mp-7631,186,-7.530556128333332,3.1716322447065877,-0.20450876833333234,125.9565448673885,2.1121,3.0948838564424355,15.184531,3.0,-1.0
Cr3(CuO6)2,mp-764630,14,-6.106300967352942,3.328507644465859,-1.2788573570588238,948.0253931246274,0.11769999999999993,8.629781,14.84664660162267,3.0,-1.0
Na(NiO2)2,mp-764934,13,-4.672197048928573,4.287893424669009,-1.0251131272619054,316.58556655433506,0.0,4.871453,12.618784868583225,3.0,-1.0
Co29Ge13O56,mp-764992,146,-6.276219687959182,5.668997003538637,-1.687935561224491,1039.660589544907,0.0,10.296956525771341,10.296957248776213,3.0,-1.0
Na5Ni9O16,mp-765602,10,-4.659948305333333,4.8128246365938105,-1.0916436818888884,310.2384515516688,0.0,5.17342301493112,11.592345443476914,3.0,-1.0
Li(CuO)3,mp-765613,139,-4.970598022142856,5.634377594767793,-1.1215209817261902,289.5017436140061,0.0,18.618315547507727,18.618315547507727,3.0,-1.0
Ag7Sb9O25,mp-766328,160,-5.42551430804878,6.64415847497142,-1.4467206519004059,562.5560233675459,0.3803000000000001,12.784861435358696,12.784861840730116,3.0,-1.0
Li8BiS6,mp-766423,185,-3.980737987333333,2.568036139906236,-1.3141142243611117,590.8776990145745,0.0,7.11463059017304,13.479142999999999,3.0,-1.0
Li2Cu4S3,mp-766447,62,-4.0878911802777775,4.1760455526362135,-0.6841531787268522,579.3707116599303,0.7526000000000002,6.362492,10.772494,3.0,-1.0
Li2Cu4S3,mp-766453,62,-4.092311358888889,4.186222997830884,-0.6885733573379638,577.9621594475012,0.009999999999999787,3.8717040000000003,14.366610999999999,3.0,-1.0
Li7(Cu6S5)2,mp-766483,10,-4.146779453275862,4.329186280186879,-0.7921988058477012,868.2369979085399,0.0,3.7545879999999996,15.44943948051346,3.0,-1.0
Li10Cu4S9,mp-766521,137,-4.0173265669565215,2.6737336333032635,-1.1154585604981888,760.3952260541589,0.0,5.659139,11.59163,3.0,-1.0
Li17Ni11O28,mp-766611,2,-4.856758209821429,4.279052914159944,-1.444118471636905,470.17921805354484,0.5520999999999998,5.796322,13.190991328954544,3.0,-1.0
Li3Sb11S18,mp-767088,1,-4.32882640125,4.162487794175036,-0.7769639061328126,772.8672133997928,0.5846999999999998,6.896377,15.440251261686804,3.0,-1.0
Li5SbS,mp-767403,62,-3.4120022592857144,2.548016016451477,-0.9624871963988098,491.45912459700537,1.1225,6.158842,9.749563,3.0,-1.0
Li9Sb3S,mp-767516,14,-3.276814595192308,2.9895890824824067,-0.7352531038942308,1021.5974025910041,0.040899999999999714,7.765830999999999,14.59611478201648,3.0,-1.0
Li7Sb2S,mp-767553,14,-3.31831654725,2.757520406536864,-0.8089713058958334,780.8468347458577,0.0,5.941654,13.98521,3.0,-1.0
Li34(Sb3S2)3,mp-767715,87,-3.3839987593877554,2.7530338612071334,-0.8757879873894561,919.3615574127107,0.0,11.705848745898692,11.705848745898692,3.0,-1.0
Li34Sb8S7,mp-767765,87,-3.4395837602040817,2.6440730383514524,-0.9447609754124148,900.9174149575824,0.0,11.796260987441995,11.796260987441995,3.0,-1.0
Ni17(AsO4)12,mp-767798,5,-5.590887537532468,5.024934321111063,-1.4197747203896105,880.6154356875795,0.0,9.749964737221566,10.471684483793904,3.0,-1.0
Li7(SbS)2,mp-768156,62,-3.5857322152272726,2.742936013767556,-0.9887829170075756,862.6456504989598,0.06769999999999987,7.5168789999999985,13.19095,3.0,-1.0
MnP4,mp-769096,14,-6.460827113333334,3.97609765174582,-0.2978571301215112,448.11676674543816,0.0,4.762392,13.683431,3.0,-1.0
YB4Mo,mp-7691,55,-7.956514398333333,5.925543154457633,-0.6182341938888882,255.67418665072654,0.21879999999999988,3.628214,11.669166,3.0,-1.0
NiP4,mp-769108,14,-5.650457855333332,3.942453262380457,-0.1638018301904765,461.4313436362104,0.0,4.79181,14.020017999999999,3.0,-1.0
Li4Cu4Cl10O,mp-769256,15,-3.480697973947368,2.7714374475022927,-1.3324509537991225,781.878886532364,0.0,7.532781355017612,10.39481004021762,3.0,-1.0
Li3Cu5O4,mp-770818,14,-4.7658639420833335,4.340099417003255,-1.1654086233333334,616.0697563419602,1.3598999999999997,6.641752,12.713012231731115,3.0,-1.0
Li3Ni3SbO8,mp-772016,166,-5.162725271333334,4.908474106579021,-1.518091695999999,151.1047438614229,0.0,10.418263529043651,14.768291119635133,3.0,-1.0
Cr3(CuO6)2,mp-772337,60,-6.0911462988235305,3.2331303429195617,-1.2637026885294125,975.992129446165,0.12879999999999991,8.877932000000003,12.245410000000001,3.0,-1.0
Rb6Co2O7,mp-772572,14,-4.506245135333333,3.864779685012501,-1.4348119149166665,638.1894813977608,1.138,6.914675,11.708522906878136,3.0,-1.0
Co(NO3)4,mp-773130,2,-6.030109873529412,1.9169232087418864,-0.8540985693835289,1063.5942125904803,0.1349999999999998,7.4256160000000015,12.847536067398838,0.0,1.0
Cs6Co2O7,mp-773199,14,-4.451176823666667,4.697258357279939,-1.4137962834224136,726.3229683970446,1.1471,7.3469070000000025,12.357221393907047,3.0,-1.0
Na8Bi5O14,mp-773826,2,-4.967374206296296,5.857994132051402,-1.6560147305246915,823.6439367979991,0.015200000000000102,9.1619,11.557005771773715,3.0,-1.0
Li3CoNi3O8,mp-774300,2,-5.093803567777779,4.684937327217815,-1.3754822221111112,408.1382400507337,0.0,5.774624036799798,14.32579673363161,3.0,-1.0
Li3CuS3,mp-774745,136,-4.005084073214285,2.2951660513271035,-1.1129490916964286,522.5479452315767,0.6165,4.491663,10.785977,3.0,-1.0
NbS2,mp-774873,194,-7.101153355,3.681858769176832,-1.4187250970833332,141.6485857906729,0.0,3.3893220401788318,14.238228,2.0,1.0
Li6CoNi9O20,mp-775263,12,-4.9227344550000005,4.542787146026041,-1.1964457191666673,346.8206542915741,0.0,11.564723200256589,11.71624064859168,3.0,-1.0
Mg4Cu11O15,mp-776258,25,-5.27377023,5.476364194522129,-1.4345243766249998,628.4018917865998,0.0,4.03443,16.286403,3.0,-1.0
Li6Sb2S7,mp-776405,14,-4.095041799333333,2.8799875664612924,-1.1602105494583337,587.6730785331549,0.0,6.498628,12.682282431766966,3.0,-1.0
Rb2O,mp-776890,61,-3.1930967383333333,3.778973815556168,-1.1241855337500002,657.1368536866905,0.9377,6.879778999999999,13.511698999999998,3.0,-1.0
Li8SbS6,mp-777019,185,-4.010337698,2.1088699903739125,-1.3277828063611108,582.1741158673452,0.0524,7.066606593629648,13.461717000000002,3.0,-1.0
Sn2N2O,mp-777394,164,-6.2531164307500005,6.554428561156875,-0.6191657199520002,570.3992708589556,0.7619000000000007,6.454578416810969,15.809298000000002,3.0,-1.0
Na11Bi5O16,mp-777789,208,-4.85183867765625,5.81971454783041,-1.6692763828645831,886.6799705295049,0.0,9.607026,9.607026,3.0,-1.0
Na9Cu2O7,mp-777853,198,-4.12431827125,3.0505655628692168,-1.3604326284027781,971.0898614418574,0.0,9.902689,9.902689,3.0,-1.0
Na9Cu2O7,mp-779478,29,-4.122959325277779,3.0622961477821207,-1.3590736824305558,967.3699560088199,0.0,9.535699000000001,10.219985000000001,3.0,-1.0
Hg(TeO3)2,mp-779690,14,-4.767097507777779,5.772728151971215,-1.2044002813888883,634.8907133662253,1.9276,6.5729070000000025,12.804917,3.0,-1.0
NaCu3O2,mp-780403,61,-4.578450768333333,4.074059876280625,-0.8945169076388885,800.9160915067056,1.2691,7.458152,14.343577,2.0,1.0
Rb2CoO3,mp-780880,64,-4.768739044166667,3.859059383405978,-1.4466753197916666,478.2605859866407,0.4884,6.721034903193555,13.345396,3.0,-1.0
Ca5BC4Cl3,mp-781865,63,-5.484866534230768,2.3784910069015948,-1.071322926457435,510.48982779144376,0.7475,7.293273517497133,18.688984,3.0,-1.0
Ba(GaSe2)2,mp-7841,66,-4.230313887857142,4.621271537559563,-1.0933413527678566,425.8815046365763,1.8615,6.584393207674341,11.607871000000001,3.0,-1.0
KNbS2,mp-7938,194,-6.03411601625,3.9659895573824295,-1.4946950860624997,164.2411275888714,0.8115000000000006,3.4845998943212986,15.618720000000001,3.0,-1.0
NaNbSe2,mp-7939,194,-5.60643420875,5.440617594471772,-1.0044891557552085,167.14367626477616,0.5561999999999996,3.583050586273378,15.033271,3.0,-1.0
KNbSe2,mp-7940,194,-5.53478449625,5.134904131363613,-0.9839027606718752,187.5132408299338,0.6860999999999997,3.6370319078748814,16.368432000000002,3.0,-1.0
NaSb,mp-7944,14,-3.048640753125,3.931659185534389,-0.32681402479166666,489.08134795637255,0.6454000000000004,6.412056,12.5883636043993,3.0,-1.0
Ba2GeP2,mp-8194,14,-4.709124169,4.4590138108048984,-0.8516159214285715,609.6070271235636,0.6099000000000001,7.586266,9.647936999999999,3.0,-1.0
Ba2GeAs2,mp-8195,14,-4.449575031499999,5.069263826962007,-0.8937337665000001,651.3890539051832,0.5583999999999998,7.773695,9.829962,3.0,-1.0
GaGeTe,mp-8211,166,-3.830852996666666,4.989099768840489,-0.2327115674999997,179.7054093150441,0.2841,12.417398510235063,12.417398548876696,2.0,1.0
RbTe,mp-8360,55,-2.87500398125,4.240912802663951,-0.81308648,333.70872941529893,0.8622000000000001,4.946916000000001,11.276989,3.0,-1.0
CsTe,mp-8361,55,-2.866867085,4.534723147146419,-0.8475154339655173,381.57079575139915,1.0056000000000005,5.104116,11.822445,3.0,-1.0
Tl3SbS4,mp-8378,2,-3.766492178125,5.7587680907075525,-0.6282522221874998,497.7895680071079,1.7042999999999997,6.4454480000000025,12.163125969394255,3.0,-1.0
Sc3Si3Ni,mp-8392,12,-6.727879525714287,3.9081355266450815,-0.8630958035714299,236.08548619831626,0.0,5.309759585557995,12.825312558153467,3.0,-1.0
Ca5(AlSb3)2,mp-8439,55,-4.024047387307692,4.237038841921529,-0.7707275026923077,771.9951140000011,0.21769999999999973,4.49905,14.143578,3.0,-1.0
Ca3N2,mp-844,206,-5.326948207,2.6063864894980027,-0.942599403952,755.5920051420769,1.1111,9.938093573687206,9.938093573687206,3.0,-1.0
Tl4SiS4,mp-8479,9,-4.0269721516666666,5.951824418621796,-0.830984884166667,543.417787130922,2.0501,7.807557497709255,8.757442552078889,1.0,1.0
LiGe,mp-8490,141,-3.5407996841666667,4.100620065210991,-0.27482432333333345,193.35713724889342,0.0,12.022343919061164,12.022343919061164,3.0,-1.0
Na8NiO6,mp-849670,185,-3.966814033,2.5315040092004595,-1.326324217944444,444.21951079951936,0.0,6.32545995615979,12.819844999999999,3.0,-1.0
Na3(NiO2)2,mp-850400,62,-4.317088597222222,3.456168605711719,-1.1883228322222226,481.1363793415098,0.0,5.551736,10.068513000000001,3.0,-1.0
Ba3Co(CN)3,mp-861914,176,-7.145377806000003,4.341884475862578,-0.7050789112140009,419.9006906866025,0.8434999999999997,5.829496,9.119950535858512,0.0,1.0
Ag2GePbS4,mp-861942,40,-4.1186066025,5.535808680245861,-0.6320133026041668,374.25596627414393,1.7318000000000002,6.294836928715867,10.283457,3.0,-1.0
KTl,mp-863730,64,-1.8524239841666663,4.851036240185309,-0.11639802066666652,1000.1427046428247,0.11719999999999994,8.254271000000001,11.008003033826345,3.0,-1.0
TlInS2,mp-865274,15,-3.87137713,5.415851090974155,-0.8565480190625001,940.2571649894752,1.3050000000000006,7.8864473372492,15.378302498921654,2.0,1.0
VI3,mp-865493,194,-3.79189942375,3.956815624286532,-0.3779134450000004,362.3013601873109,0.0,3.6810959999999997,10.660586610349826,1.0,1.0
Ba5Cd2Sb5F,mp-865528,63,-3.826940205,5.599650540227276,-1.249540973937692,912.9118726701804,0.0703999999999998,12.022817193126786,15.561753,3.0,-1.0
Y11In9Ni4,mp-865689,65,-5.4922712324999985,6.4656139868944775,-0.533234460138889,576.8573134776253,0.0,3.651686,13.106926992539213,3.0,-1.0
K3Bi(AsSe2)6,mp-865961,147,-3.9435078404545454,4.24220255207264,-0.4377405989602278,674.5666397980938,1.5294,7.962300999999999,9.890717956986236,3.0,-1.0
CsAgPSe3,mp-865980,14,-3.788498727083333,4.344243435379738,-0.5170022821167297,777.668842630915,1.7257000000000002,6.965195,12.743274000000001,3.0,-1.0
CsAg2AsS3,mp-866615,14,-3.8176944960714287,4.343555017706293,-0.7264655840199096,794.8136593708944,1.6634,8.521918,10.244710184420644,3.0,-1.0
K3P2AuSe8,mp-866660,9,-3.804549941071429,3.859409068947688,-0.5617683749923467,867.3032672999188,1.2184,7.3358566460500025,18.909890519910075,3.0,-1.0
CaSnS3,mp-866811,62,-4.6974920094999995,3.8465242092359455,-1.4106637423750008,440.3032033982407,0.7673999999999994,3.8434559999999998,13.790834,3.0,-1.0
Sr5Cd2Sb5F,mp-867155,63,-3.7074685311538462,5.338419585143712,-1.2183345218864108,802.9686012451587,0.016199999999999548,11.473509943294639,14.907233999999999,3.0,-1.0
K2Mn(PSe3)2,mp-867228,14,-4.487950146818182,3.484658342663455,-0.5620824238055026,637.4447316204188,0.7664,6.560809,12.888945,3.0,-1.0
K2SrCdSb2,mp-867336,26,-2.7995564775,4.175911343884969,-0.6176945796111113,414.94284785211465,0.3151999999999999,4.9971190000000005,9.973139,3.0,-1.0
K2BaCdSb2,mp-867340,26,-2.8478229883333337,4.296286030416283,-0.6277128276666669,441.7409275687037,0.15000000000000036,5.105016,10.005317999999999,3.0,-1.0
AlTlSe2,mp-867359,15,-4.03021332625,5.5187900630185505,-0.755450384921875,937.0498607831568,1.6531000000000002,7.747248846389923,15.854045343986687,3.0,-1.0
K2SrIn7,mp-867362,63,-2.545044003,5.110780522966085,-0.22783747726666664,630.0264144775214,0.0,6.622865174053675,20.112893,3.0,-1.0
K2Y4Cu4Se9,mp-867371,12,-5.2840511215789485,5.024157426922772,-1.2868557359873904,462.2671634093663,0.7913999999999999,7.469319314431938,16.556271143606825,3.0,-1.0
NaTlO,mp-867680,6,-3.7656074908333337,5.632576794886639,-1.1249506023611109,286.9943954186119,0.25059999999999993,3.649193,12.801778512297776,2.0,1.0
Nb3GeS6,mp-867739,193,-6.9564180649999985,4.500606709387196,-1.3799298473750001,401.24220919676577,0.0,5.823958364965963,13.659647,3.0,-1.0
K5As2Au,mp-8683,194,-2.7084227625,3.163658707277735,-0.440408626875,569.2854548246315,0.3393999999999999,5.803470476226617,19.517488,3.0,-1.0
HfSnS3,mp-8725,62,-6.405864296999999,5.187505555857997,-1.5287182358750002,503.70858137582235,1.2463000000000002,3.7170370000000004,14.260973000000002,1.0,1.0
Cs2As2Pd,mp-8857,63,-3.7703375130000003,4.858152872292084,-0.5125528401724132,356.89467491419924,0.9979,6.478761,8.462888389132045,3.0,-1.0
Cs(SbS2)2,mp-8890,2,-4.190191409285714,3.765028064584768,-0.8979965064901481,445.1759162741066,1.4716999999999998,6.732247999999999,9.813466968736432,3.0,-1.0
K2VAgS4,mp-8900,70,-4.7801976875,2.7652856010932334,-1.276545258145834,438.68088028422477,1.3266999999999998,7.236972246223763,13.150453747326365,3.0,-1.0
Rb2VAgS4,mp-8901,70,-4.7597139625,3.1890921216614037,-1.2885277517708338,476.96062976295633,1.354,7.467344045637107,13.711120703560194,3.0,-1.0
SrGaSn,mp-8914,194,-3.4475785250000004,5.24690487101312,-0.5385289880555563,349.46072187020104,0.0,4.633228736532657,18.797508999999998,3.0,-1.0
Cs2SnAs2,mp-8934,72,-3.456212747,4.242272978449813,-0.4324900651724136,418.3287943308358,0.8352999999999997,9.160667914189279,9.160667914189279,3.0,-1.0
SnSe,mp-8936,129,-4.1390249925,2.90873026241068,-0.3862833261718753,225.69212521121585,1.6171,4.3219389999999995,12.082564999999999,2.0,1.0
TlBS2,mp-8946,166,-4.79288557875,5.171493693401975,-0.7961294576041672,538.1372654393514,1.7616000000000005,8.418540765408338,8.418541394442688,2.0,1.0
TaSe2,mp-8954,42,-7.079530366666668,4.399236768583486,-0.7963301715624999,127.90931308230229,0.0,3.475490163756761,12.595476752319186,2.0,1.0
K2Sn2Se5,mp-8966,15,-3.8046667427777785,4.103510004345609,-0.7247224103020832,574.9587629185123,1.3481,7.267478827736959,12.090663116552253,3.0,-1.0
K2NbCuSe4,mp-9003,70,-4.73914127,3.767752670053107,-0.938521830671875,485.2274217935337,1.6544,7.471727369351281,14.002699461748975,3.0,-1.0
RbSe,mp-9063,189,-3.1664469533333333,3.3478429775973573,-0.9282241782552084,489.33977016635873,0.9245,6.3653010000000005,9.421725945010557,3.0,-1.0
RbTe,mp-9064,189,-2.8992148758333336,3.5972120654775472,-0.8372973745833336,590.1360263911142,0.6065,6.6553460000000015,10.118716771039695,3.0,-1.0
Na8TiAs4,mp-9071,227,-3.3837793192307686,2.657099954115643,-0.5338421369230767,664.2800751512348,1.0342999999999998,9.793894195695703,9.793894195695703,3.0,-1.0
As2Se3,mp-909,14,-4.0745673255,4.2840218933406735,-0.11337307690624955,599.5944909233905,1.5414,4.504958,12.91540262084543,2.0,1.0
CdP2,mp-913,96,-4.038127064583334,4.0227421791407725,-0.12163990363095264,575.7846320811043,1.5931000000000002,5.363881,20.012521,3.0,-1.0
CrSbS3,mp-9130,62,-5.722734580499999,4.293897908598804,-0.8825309183750001,417.58267864167465,0.0,3.66086,12.846713000000001,3.0,-1.0
Ta3SnS6,mp-9132,193,-7.457764776999999,6.593950735797763,-1.415680382375001,430.09322687123483,0.0,5.809436729487983,14.715125,3.0,-1.0
Na3SbTe3,mp-9191,198,-3.1389859803571425,4.202015379560756,-0.638577311785714,906.5819474539194,1.4701000000000004,9.678372999999999,9.678372999999999,3.0,-1.0
Al2Te5,mp-9254,12,-3.640196042857143,4.456917871194074,-0.3248165699999999,257.8085922923927,1.1257,7.797655665214385,10.55346596911138,2.0,1.0