pretty_formula,task_id,spacegroup.number,final_energy_per_atom,density,formation_energy_per_atom,volume,band_gap,min_abc,max_abc,Dimension,Dim
CsReBrCl3,mp-568854,40,-4.486528143611111,4.282062077975613,-1.3634599723962837,1175.8760137975162,1.1778,10.2938973868479,11.097232,3.0,-1.0
K6InTe4Cl,mp-568916,186,-3.1006494966666662,3.1937680767005823,-1.1638884876049995,930.9477065919963,1.949,8.141902,11.4903800180682,3.0,-1.0
Ba2BN2Cl,mp-568923,214,-6.253221326388887,4.219455527500701,-1.6405331959199998,1647.8359849616918,2.7508,12.88779515153589,12.88779515153589,3.0,-1.0
Na3AlH6,mp-568950,57,-2.9647343302499998,1.5116849414087623,-0.25193908542199994,896.3374143813303,2.4589,5.467835,17.772798,3.0,-1.0
CaSiN2,mp-568965,61,-7.25161112390625,3.2369664247794194,-1.4176465550962505,789.4082485720662,3.4391,5.160705999999999,14.884870999999999,3.0,-1.0
K3SnIrCl8,mp-568970,31,-3.713445535,3.1150444690814885,-1.6972911557753845,758.9284442527264,1.5941,8.048733,9.734919999999999,3.0,-1.0
KAuCl4,mp-568986,14,-2.8755119225,3.3863224956858127,-1.30889785684,741.1926113220479,1.4211,6.553309,12.506288740681546,3.0,-1.0
HfI4,mp-569059,15,-4.124057389,4.81529757861006,-0.9134095270000004,946.4079177187364,2.3138,8.864813560124375,13.293772546351356,1.0,1.0
Cs3MnI5,mp-569118,140,-3.378130295,3.932281515970233,-1.2150217770498084,919.0389846528357,2.3481,11.191882844065246,11.191882844065246,3.0,-1.0
K3InCl6,mp-569132,14,-3.36982106075,2.4632146792977383,-2.0092224176060003,1199.504198621339,3.4614000000000003,7.7491330000000005,12.997376205098359,3.0,-1.0
SbAsPCl13,mp-569209,36,-3.08205546,2.1442577005254466,-1.1757136972469642,1066.4341435341428,2.1274,9.840591427982416,12.179556,0.0,1.0
SbI3,mp-569224,14,-2.48806794375,4.300067422733588,-0.31280817250000004,776.1522275874446,2.2167000000000003,7.912282,11.715895,0.0,1.0
Cs3LiI4,mp-569238,11,-2.78584111,3.6002819255475496,-1.4494435546408044,842.450251841059,3.8043,5.209461,17.441329242243434,3.0,-1.0
RbMnCl3,mp-569309,194,-4.592934857333334,3.0185235164023414,-1.8121761627203683,814.4962194120128,1.3114,7.233571902915252,17.974335,3.0,-1.0
Rb2ZnN12,mp-569340,29,-6.793397949333332,2.5873078162272694,-0.2166994155706656,1038.2429300414017,3.7259,6.675864999999999,21.164251,3.0,-1.0
B3H5,mp-569405,14,-4.686432697604167,0.8115989554964317,-0.15682537017916687,920.0339432608656,3.6983,7.1260460000000005,13.650182200865489,0.0,1.0
Rb2CuBr3,mp-569531,62,-3.0946074,3.8316259731550537,-1.2660983275,822.0186452941443,2.2507,4.461074,13.822458,3.0,-1.0
TeCl4,mp-569561,15,-2.71628005875,2.505711732417357,-1.0845390913580002,1428.3180151110041,3.1084,10.541003818728507,16.218001092010383,0.0,1.0
BP2N2Cl7,mp-569608,14,-4.635909797916667,1.8146028304508053,-1.1202544057407935,1277.2676149120407,3.0652,8.652038000000001,15.825563194534215,0.0,1.0
Ba2P7Cl,mp-569613,11,-5.172330381,3.324156261290349,-0.8738510143260001,526.4354094295658,1.9311000000000005,6.421565,11.87969171145973,3.0,-1.0
SnPCl9,mp-569653,67,-3.1437497731818183,2.1614608165556755,-1.2612482725374028,720.2495203503813,2.5637,6.743939,10.577748124660797,0.0,1.0
RbCu2I3,mp-569764,62,-2.8949475075,4.669236148244398,-0.6031166312500004,843.9524676794058,2.0766,5.400327,13.898698000000001,3.0,-1.0
Si(H3C)2,mp-569770,2,-5.0992158794444435,0.9468814049278536,-0.2861830585244441,1631.763134307367,3.5723000000000003,10.655335000000001,14.754026236720946,0.0,1.0
Sr2LiCBr3N2,mp-569782,227,-5.474159356944443,3.814807503843512,-1.548560460436296,804.2674649326617,3.9744000000000006,10.438509707988107,10.438509707988107,3.0,-1.0
Al(BH4)3,mp-569787,33,-4.11249984703125,0.6183652554505286,-0.19621290458999985,768.1210830273068,6.2431,6.376631,18.611539999999998,0.0,1.0
Sr2BIN2,mp-569810,11,-6.0108346675,3.8235101709151937,-1.4296161228766664,592.3270542721564,3.0201,4.2394370000000015,13.412092059165753,3.0,-1.0
Ga3Bi5Cl12,mp-569854,161,-3.39702972175,4.2811861968144616,-1.2179962328309997,1302.8571325411242,1.8018,12.456355951476981,12.456355970876595,0.0,1.0
CrCl3,mp-569890,153,-4.9325109495833335,2.5119679605120666,-1.5788608495283334,628.0848340718791,1.4824,6.0702296650088945,19.682371,2.0,1.0
Ca9B2(CCl2)4,mp-569892,63,-4.976972833913044,2.464837268628445,-1.5705766132353631,962.0185735447908,1.3729,8.940749907688279,12.164994,3.0,-1.0
K2AgI3,mp-569943,62,-2.6859043079166667,3.8089685267656286,-1.081672350861111,988.359292747214,2.5683,4.86538,19.865796,3.0,-1.0
K2CuCl3,mp-569952,62,-3.4163167829166667,2.5453339240150603,-1.7360572005466668,647.4315930007286,2.4571,4.167765,12.692383,3.0,-1.0
Sr3MoN4,mp-570046,15,-7.078102493333333,4.488345004186821,-1.1126055507733323,920.8330999022193,2.0105,9.972448175001013,10.377639346532188,3.0,-1.0
Mg8B5IN10,mp-570132,74,-6.424553005833332,2.3614720530843183,-1.1225557664430557,724.9310529332226,2.6847,10.032511076678313,10.032511076678313,3.0,-1.0
ZnSi4As2(H3C)12,mp-570146,2,-5.021720958727272,1.2978480412259492,-0.3011550549149082,1299.9485825562238,2.7616,9.997024,12.748375630347107,0.0,1.0
Rb2ZnBr4,mp-570168,62,-2.8302282371428573,3.4730446419063914,-1.434725677857143,1063.2679864242975,3.6395,7.828958,13.731071,3.0,-1.0
Ca(BH4)2,mp-570194,61,-4.20200219,1.0767073758966188,-0.4490679433903027,860.7356314397788,5.6037,7.354322,13.352535000000001,3.0,-1.0
NbAsPCl13,mp-570225,36,-3.655844333125,2.0808356616799784,-1.3762335828719643,1052.8868465094718,2.4431000000000003,9.788371275081056,12.11086,0.0,1.0
NaC2N3,mp-570248,14,-7.621856557916668,1.8746993622922687,-0.3509181946622214,946.3270992378516,3.5806,3.6415349999999997,23.435638,3.0,-1.0
SiBr4,mp-570285,205,-3.2283750202499997,2.5460974809433576,-0.8337709842500004,1814.1392577050808,4.1057,12.196172,12.196172,0.0,1.0
MnTlCl3,mp-570300,62,-4.4875546800000015,4.618655739736184,-1.430572203887035,525.890244242322,1.9565,3.866394,14.808792,1.0,1.0
TlGaI4,mp-570306,14,-2.5130983816666665,4.628862767254215,-0.5987985579166665,1121.729984633662,2.5565999999999995,8.123381,16.48539445996516,0.0,1.0
PBr2N,mp-570315,86,-4.580920201875,2.822325779342844,-0.4210174196128573,963.912087056398,2.9781,6.784853,11.919238,0.0,1.0
TaPNCl7,mp-570489,14,-4.8602510065,2.6023972535615942,-1.4602017548771429,1210.0542724796123,3.1658,6.903638000000001,15.525027976733375,0.0,1.0
ZrHg3(SeCl3)2,mp-570520,14,-3.314125750416667,4.987771570208067,-1.3163198720206253,708.2130621359686,2.5952,6.785931,13.503685879169025,2.0,1.0
Cs(BCl)6,mp-570530,148,-4.958922579423076,2.146113306538488,-1.2285488211531561,1270.4525324556944,3.2599,16.441758774614108,16.441759078525994,3.0,-1.0
NbP2NCl12,mp-570531,15,-4.0874293190625,2.02075919705376,-1.342019277102679,976.7148203789227,2.4316,8.319674740677426,15.926426667520404,0.0,1.0
Zr(SeCl6)2,mp-570544,43,-3.337599544666667,2.3781733144988344,-1.2985505242538338,942.0393683822721,2.8096,9.106449805244193,13.157203899782507,0.0,1.0
Ca7GeN6,mp-570555,60,-5.695255606964286,3.2471716242311537,-0.9540370254842856,894.3551743594337,1.6969999999999998,6.2122839999999995,13.198626,3.0,-1.0
Ca2Si5N8,mp-570645,61,-7.732059204666668,3.1166688646090006,-1.4148893806026668,1417.8135016466085,3.6461,9.71054,13.696004,3.0,-1.0
SbCNCl6,mp-570727,62,-3.988496797222224,2.1816250372659525,-0.7850123541044446,1097.5611020302363,1.9675,8.082896,13.40851,0.0,1.0
Tl3PbBr5,mp-570753,76,-2.9989664327777783,6.385256062268048,-0.8898287983333337,1268.9493454080373,2.9071,8.997858,15.673501000000002,3.0,-1.0
KTaN2,mp-570755,61,-8.33622658140625,5.478996242059084,-1.117946343346249,1202.8849234022045,2.6564,5.9921440000000015,16.690910000000002,3.0,-1.0
Cl2,mp-570778,138,-1.813558165,0.8294266336799658,0.0,1135.6489244522654,2.6885000000000003,8.203525,11.765808999999999,0.0,1.0
CsI4,mp-571011,14,-2.073361369,4.044456429472045,-0.6750708025862068,1051.9228323867392,1.7847,9.089203,11.720647052236535,3.0,-1.0
Ga2BiSe4,mp-571085,126,-3.9601670632142856,5.456446252418847,-0.5416140309821428,808.614440096987,2.1790000000000003,7.947814,12.801065,3.0,-1.0
PNCl2,mp-571213,86,-4.933022128125,1.870374845648976,-0.9646571274928566,823.0820592512248,3.8549,6.3293,11.403646,0.0,1.0
Cs2NaAu3(CN)6,mp-571248,194,-6.6503505219444445,4.038412213361011,-0.20576058269307712,851.8171062395725,2.5949,7.30770819793983,18.418460999999997,3.0,-1.0
Tl2ZnN12,mp-571259,29,-6.7116299835,4.291625344307119,0.04921773792933474,994.0207666756932,2.9658,6.667313,20.883561,0.0,1.0
AlInI4,mp-571260,11,-2.7373010991666664,3.877024253545701,-0.638416095833333,1112.5883395024923,3.0259,7.445975,12.509589267165447,0.0,1.0
Hf(SeCl6)2,mp-571313,43,-3.4511909056666665,2.7674033277762637,-1.3181760039205,914.2686452931958,2.7944,9.005478029224934,13.066776266689502,0.0,1.0
Ca5(SiN3)2,mp-571333,15,-6.600534171923077,3.003935591489585,-1.3241141284061535,376.5604031812017,2.1805000000000003,5.7906419642290095,12.777040471291347,3.0,-1.0
Y(BH4)3,mp-571369,205,-4.487484470859375,1.3791036662903866,-0.4011415732097916,1285.31359084142,4.5771,10.872674,10.872674,3.0,-1.0
InGa2Cl7,mp-571379,33,-3.264982274,2.6142553944630262,-1.506499116782,1276.5592033498176,3.8337,9.380463,12.41315,0.0,1.0
K2CuBr3,mp-571440,62,-3.13287163375,3.386877829897184,-1.26107426975,748.0875275073092,2.3444,4.360979,13.387307,3.0,-1.0
HfHg3(SeCl3)2,mp-571445,14,-3.4577587808333337,5.4347180637102595,-1.3424955507706249,703.2972339202075,2.5702,6.754917,13.479364169396307,2.0,1.0
ZnCl2,mp-571540,14,-2.7970650980555565,2.700210808335001,-1.5412499102288892,1005.9498265758936,4.0185,6.787908,14.045798511946304,3.0,-1.0
Ba3Na2(CN2)4,mp-571621,14,-7.282268359852941,3.749225200883023,-0.8756144054827452,1094.9544365810389,3.3901000000000003,6.419356,17.961585065527817,3.0,-1.0
Al2BiSe4,mp-571623,126,-4.364985548928571,4.7437241288094025,-0.7414381374107138,810.4118611420255,2.4043000000000005,8.015926,12.612419000000001,3.0,-1.0
K2HgCl4,mp-571661,62,-2.7483592289285714,2.742673191250712,-1.67123320522,1018.5980726909337,2.2968,8.118706,13.649457,3.0,-1.0
Cs2Al(NO3)5,mp-572149,152,-6.17714697768116,2.6697490454414807,-1.4387242149208153,1124.8260407539904,2.9081,10.175803,11.297777346742365,3.0,-1.0
TlMo2Cl7O2,mp-572192,59,-4.32684155125,3.285699060091776,-1.4719059833600008,683.7166569113424,2.4263,7.234574,9.844603,0.0,1.0
BaCr2O7,mp-572430,15,-6.810824560375003,3.4833124250356287,-2.118952155250001,1347.437814877666,2.6252,9.626992314948893,11.843563263191236,3.0,-1.0
CsRe(Cl2O)2,mp-572546,14,-5.0818248453125,3.5910834514510475,-1.72599179512138,911.7229690496048,1.4859,6.8609839999999975,12.277870475159526,3.0,-1.0
Cs2Ge2S5,mp-572598,15,-4.320065395555557,3.098586679583314,-1.1643087523874525,1224.8919002828038,2.4126,9.671542598012016,11.460485009285774,3.0,-1.0
Cs3SrCu2C7(SN)7,mp-572625,121,-6.3713342866666665,2.768132033654675,-0.5513416573701759,1223.7555062986294,2.8876,12.76589400939425,12.76589400939425,3.0,-1.0
B2S3,mp-572670,14,-5.58043405025,1.6538087986817678,-0.8248834217916666,946.3717032612446,2.4329,4.546108,19.27592096992061,2.0,1.0
Co(IO3)2,mp-572672,4,-4.759268551111111,4.860495865077171,-1.0085645691666671,558.5654832207744,2.0575,5.338420301294382,10.959094149987669,3.0,-1.0
ReP(Cl2O)3,mp-572794,14,-5.011165357272726,2.6666710935731057,-1.5459003288074025,1190.3478867311615,1.8661,6.5791460000000015,14.204797985303173,0.0,1.0
Cs2I4O11,mp-572805,14,-4.375834178529411,4.573416573251962,-1.1647062161536506,1378.8839058459664,2.9267000000000003,7.60894,16.406795501044954,3.0,-1.0
Co5Se4(ClO6)2,mp-572877,2,-5.4311997582608695,4.0212961284935895,-1.3611596511258697,721.3210385407681,2.5898000000000003,6.578942600347643,14.442619524233475,3.0,-1.0
Cs2Ga3As5O18,mp-572921,15,-5.897932998214286,4.147133113113593,-1.9481950798522167,910.9865396682974,2.4286,12.72945883131349,14.027682326675105,3.0,-1.0
NiSeO3,mp-572987,15,-5.092726794624999,4.511954129829118,-1.1229178818437504,1093.2087541890753,2.9171000000000005,9.307125700544608,14.928183408225124,3.0,-1.0
WSeS2Cl5,mp-573078,15,-4.3495282744444435,2.9962339748165387,-1.0529424338770836,1117.7171098403971,2.2777,10.194723495409768,14.45990949939162,0.0,1.0
CsGa3S5,mp-573145,14,-4.2851781675,3.326238625032857,-1.2468850326173373,1003.2400088675377,2.635,7.066105,12.95881,3.0,-1.0
K3Ta2Ag3S8,mp-573202,15,-5.198742158125,3.739497254380773,-1.2407209677500006,940.786556810464,2.2944000000000004,12.910701154762009,14.372754750780134,3.0,-1.0
PICl8,mp-573373,74,-2.6443839955,2.16440597703022,-0.9475733664651428,1354.8875987360307,1.6868,12.295074787297555,12.295074787297555,0.0,1.0
CsCr3O8,mp-573422,62,-6.7722719245833325,3.4002726369462586,-1.9571995469109198,814.3586882322335,1.9784,5.573201,16.866788,3.0,-1.0
CsTlBr4,mp-573702,19,-2.6227959504166667,4.218863629681992,-0.9886690317385056,1034.2273174137686,1.9743,7.021197,18.489199,3.0,-1.0
AlTeCl7,mp-573751,14,-3.227407775833333,2.2199584577153897,-1.4867595983688888,1205.0429541927335,3.2818,6.747966,14.374804924206867,0.0,1.0
Cs2Te,mp-573763,62,-2.636299655833333,3.9891035316531855,-0.9915977644540228,655.0586313968952,1.7768,5.91654,11.621285,3.0,-1.0
Tl10Hg3Cl16,mp-573974,87,-2.7500428851724137,5.8380259169521285,-1.2124847292124137,913.8473649411557,2.6482,13.663933574790056,13.663933574790056,2.0,1.0
K2SnBr6,mp-574040,14,-2.9764650044444436,3.5128048894524806,-1.192917339,639.4168868354452,1.8009,7.645546,13.287266642204182,3.0,-1.0
SiBr4,mp-574086,14,-3.2282715185,2.5233342586073007,-0.8336674825000003,915.2523844923936,4.2666,7.340151,11.381128135242875,0.0,1.0
Cs4Ga2Se5,mp-574485,2,-3.5133234150000003,4.158753229793772,-1.0481090621311715,851.1758387928496,2.1204,8.118977000000001,11.472202471604351,3.0,-1.0
Cs3Sb2Br9,mp-579560,164,-3.036298934285714,3.9729758324205697,-1.2022597588423645,568.9971638845393,1.9801,8.141346470252818,9.912587,3.0,-1.0
Cs2ZnN12,mp-579919,29,-6.794094604500001,2.88619929419492,-0.2287469641281376,1149.0650172255976,3.7845,6.861492,22.22776,3.0,-1.0
K3Nb2Ag3S8,mp-581115,15,-4.944299234375,3.1405675037556446,-1.205837117750001,933.9978655816353,1.952,12.864174968868426,14.429999746226539,3.0,-1.0
Co5Te4(BrO6)2,mp-581171,15,-5.359558885,5.069825748861235,-1.3175314328260874,757.8258385588675,2.2494000000000005,10.740649347015896,16.558061765603153,2.0,1.0
K3Nb2Cu3S8,mp-581419,15,-5.257022740625,2.989974872639653,-1.2810636240000006,833.3484339007555,1.8652,12.248605517578644,14.523514394597786,3.0,-1.0
Mg2BN2Cl,mp-581639,61,-5.913620806041667,2.3294539873302167,-1.4071629355727773,700.7971124659058,3.6702,6.684854,10.65498,3.0,-1.0
Cs3BiSe3,mp-581738,198,-3.3900042999999997,4.3934299376204695,-0.9522934629749074,1276.8636054241645,2.02,10.848794999999999,10.848794999999999,3.0,-1.0
NaY(IO3)4,mp-581868,9,-5.059273438611111,4.750349957441874,-1.4578756933333328,1134.6851704139274,3.3077,12.648192694979072,16.12048710209124,3.0,-1.0
CsMo3Br3Cl4,mp-581922,159,-5.194668549318182,3.6593466397045566,-1.2529853684973669,1456.1796814591387,2.5856,10.312685084392813,15.810325,3.0,-1.0
Cs3Cu2Cl5,mp-582024,62,-3.3811400555,3.4821145750529325,-1.6657525215093103,1341.1170122771282,2.3072,9.478263,13.302945999999999,3.0,-1.0
CsW3Br3Cl4,mp-582076,159,-5.6021835359090915,4.8104747142113125,-1.0843685078155487,1471.8303810404798,2.9902,10.332260313063161,15.919757999999998,3.0,-1.0
K3Ta2Ag3Se8,mp-582161,15,-4.7822128553125,4.659180478261817,-0.8127308595468752,1022.4983644290324,2.0765,13.235873585450904,14.764704989376053,3.0,-1.0
Cs3PSe4,mp-583193,62,-3.655665506875,3.88790922248156,-0.8952731458424417,1273.6736532933473,1.8309,10.17822,12.267881,3.0,-1.0
TlNO3,mp-5915,62,-5.686027582,5.403459111638616,-1.075803267226,654.9108692666475,2.7867,6.4063669999999995,12.496997,0.0,1.0
Na5SiP3,mp-5929,14,-3.55506918,2.035347200102105,-0.4174655480423277,770.0180992507871,1.3279999999999994,7.3520949999999985,15.291883227529723,3.0,-1.0
Cs2MnBr4,mp-600186,62,-3.926064694285714,3.623707547420912,-1.4260336407881766,1173.771338275379,2.5604,7.995389999999999,14.087763,3.0,-1.0
RbInS2,mp-601861,15,-3.9454030890625,3.5240095837963348,-1.2758537049999994,996.7572568364903,2.0973,7.995587409954567,15.845000154591634,3.0,-1.0
RbBa2N15,mp-605646,13,-7.382093529722222,3.1781271865259977,-0.487340277122221,595.8706812055142,3.8487,5.706914,14.754405586523811,3.0,-1.0
TlSnPS4,mp-6057,33,-4.442038796428571,4.301842914331503,-0.7739716301530615,744.7254074863048,1.8417,6.798439,12.228107000000001,3.0,-1.0
TlIn(MoO4)2,mp-605771,62,-6.443052055833332,5.165117969144004,-1.9673898458333323,821.8294343986612,3.6691,6.008294,15.196314000000001,3.0,-1.0
Fe2(TeO3)3,mp-605856,62,-5.866743068392857,5.53949145379612,-1.6442503706249991,765.5783066482878,1.8538000000000008,5.3530120000000005,18.02205,3.0,-1.0
NbBr3O,mp-606393,113,-5.3498176195,4.064234525837835,-1.4982675937500003,569.7441319600285,1.975,4.001312,11.9327,1.0,1.0
Tl2Cd2(SO4)3,mp-6067,198,-5.471433110394738,5.146895425228179,-1.8958520206250007,1189.5681543225055,4.0064,10.595703,10.595703,3.0,-1.0
KPb2Cl5,mp-607267,14,-3.58963432625,4.492084896212567,-1.7390158299125005,932.6690172847279,3.6184,8.125879,12.766131205121347,3.0,-1.0
AlC3(NCl2)3,mp-607454,2,-5.6384562825,1.813882820501972,-0.8071916399384608,1163.5573576453032,2.6079,7.458953,16.436580725577386,0.0,1.0
AlTlI4,mp-607829,14,-2.7540442591666667,4.3266622364313685,-0.7201643808333333,1134.4631096414814,3.4492,8.130041,16.541697278391357,0.0,1.0
NbSNCl6,mp-608398,2,-4.4649021780555564,2.290162631433853,-1.2371385163961108,1020.0237701799159,1.8156,6.525291999999999,13.00251002869296,0.0,1.0
NaHgCl3,mp-608490,62,-2.4605059495,3.8209859762994576,-1.3845288471226669,573.5443358061942,2.5237,4.197563,18.240625,2.0,1.0
Zr(InBr3)2,mp-610738,128,-3.744267816111111,4.27711817712151,-1.091753668333333,621.4010421705311,2.4169,7.544078,10.918416,0.0,1.0
RbNO3,mp-614951,145,-5.801986574888887,2.5321111835356978,-1.4679860416148889,870.4031761296334,3.1341,7.391708,11.660643195907033,3.0,-1.0
Ga3Cl7,mp-616204,33,-3.24819167175,2.562369386938648,-1.462067337282,1185.5135962674965,4.144,9.11567,12.065999,0.0,1.0
TlCr4BiO14,mp-616232,14,-6.434811176499999,4.4094914949607285,-1.6222514898750011,1273.3618812982202,2.0799,8.403941,17.269486999999998,2.0,1.0
TeMoCl7O,mp-616455,14,-3.62932480275,2.7134373225494706,-1.2812681761569995,1193.8542536537213,2.4921,7.574483,13.070343,2.0,1.0
Sr3BCNCl2,mp-616577,62,-5.446711018125,3.477752771629095,-1.5173622216333331,707.7978447270932,1.8787,4.089812,14.687187,3.0,-1.0
PtC2(ClO)2,mp-618423,14,-6.069040717142856,3.4777736455324466,-0.9942547170028574,615.0032422386882,3.0601000000000003,6.744475,12.988174,0.0,1.0
PbCl2,mp-619071,14,-3.5984518775,5.532897669447942,-1.5250022030066666,667.7237212694554,3.0504999999999995,4.24402,15.625580406571816,3.0,-1.0
Cs2HgBr4,mp-619546,62,-2.4949166457142864,4.198123531702809,-1.2603178929802954,1243.6144538495414,2.479,8.186657,14.441323,3.0,-1.0
ClF3,mp-619575,14,-2.510886993125,2.2825023893846548,-1.1320116485825005,538.0545996954205,2.54,4.46776,14.846462265662653,0.0,1.0
Pb3(IO)2,mp-619661,62,-4.4180205825,7.0201702645641015,-1.1784066714285717,858.5466989090329,2.2333000000000003,6.042745,18.353851000000002,3.0,-1.0
MoCl2,mp-620029,64,-5.782452266666668,3.3616779524289604,-1.3313372721733334,988.9857566127404,2.4697,9.389109695922613,11.564257000000001,2.0,1.0
Cs2SrN12,mp-621930,63,-7.058892068333334,3.0588888389168623,-0.4648952517392483,1132.4241438470106,3.978,9.756907068868957,12.015764,3.0,-1.0
K2RbBiSe3,mp-621964,198,-3.469524453571428,3.938597791564912,-0.9582243522187496,1027.9188645555007,2.1282,10.092210000000001,10.092210000000001,3.0,-1.0
Cs3Sb2N3(O3F2)3,mp-622000,15,-5.492065282391303,3.641852792572328,-1.9470254484488307,859.2487771243049,3.1419,9.983153424164582,11.870844700254905,3.0,-1.0
GeS2,mp-622213,142,-4.574909575833334,2.9777452860680897,-0.7185737129166666,1220.3162128149265,2.1396,12.477992705082256,12.477992705082256,3.0,-1.0
Cs2Co2(MoO4)3,mp-622214,198,-6.4757767280263145,4.2843319029225295,-1.994126462282214,1338.7002378586972,2.6642,11.021172,11.021172,3.0,-1.0