pretty_formula,task_id,spacegroup.number,final_energy_per_atom,density,formation_energy_per_atom,volume,band_gap,min_abc,max_abc,Dimension,Dim
Ba18In8(S7F6)3,mp-1204693,138,-5.116952386538461,4.500447740439292,-2.7314503189545385,6502.417013591421,2.2909,12.88886668,22.46104942,3.0,-1.0
Al2Bi7Ru(BrCl4)2,mp-1204779,14,-3.964744272,5.08470997324526,-1.099722153054,2692.7124553203257,1.3157,11.901421000000001,18.172640630587125,0.0,1.0
Nb10Se40I3,mp-1204878,13,-5.192830432830188,4.856888168029956,-0.5622351997877357,3055.2825418281404,0.12890000000000024,9.713944,32.382973389802395,1.0,1.0
CsTe7,mp-1205022,130,-3.0770561959375,5.34007107345379,-0.2147425856788789,5105.2150157370115,0.11349999999999973,13.69164227,19.30986543,3.0,-1.0
Sr4Mn2Bi4O13,mp-1205023,33,-6.322706846086956,6.8360237559526125,-2.3021231075716093,2923.2185354885414,0.0,5.53239476,23.77490815,3.0,-1.0
Re2P3N2(Cl5O)3,mp-1205173,2,-4.847280614,2.548116895624373,-1.3041359185249717,2797.3505120865448,0.0,12.142017,19.71016997462469,0.0,1.0
Rb3Sc2(AsO4)3,mp-1205185,205,-6.506689708624999,3.984567499676953,-2.48009564525,5088.079386344505,3.8122,17.19958466,17.19958466,3.0,-1.0
SiO2,mp-1205213,47,-7.844522295740743,1.7872991778902207,-3.2056406432407405,4019.252996082263,5.3103,14.43627786,19.18861572,3.0,-1.0
CdSi3PH27C9I2,mp-1205257,19,-4.9111043844767455,1.6239838535506987,-0.3489169642746834,5045.151339762135,3.2848,15.86757491,19.045762300000003,0.0,1.0
RbSi2BP(H3C)9,mp-1205289,14,-5.048513792835366,1.1003358127057483,-0.306129502542148,3848.066414580479,2.6532,14.25320683,17.488009882335163,2.0,1.0
Zn6Ru,mp-1205290,213,-2.5485867040079366,7.733105497848776,-0.14389365900793682,3815.100126485573,0.011299999999999866,15.62555002,15.62555002,3.0,-1.0
BaNb8O14,mp-1205468,61,-9.053700274945653,6.057682660293031,-2.8724512439673915,2422.2873885725435,0.31460000000000043,9.58458999,24.06554334,3.0,-1.0
SbSe5F6,mp-1205478,14,-4.116268876875,3.7798567663970974,-1.6052805909465626,4432.140874123725,1.4680000000000002,13.741573707188365,20.461581997067672,0.0,1.0
K2SbF5,mp-1205479,4,-4.621057835056818,3.2660495267640335,-2.939489109675568,3299.099202528938,4.7325,6.61869233,29.053189158397625,3.0,-1.0
Ta4Se8SI8,mp-1208574,33,-4.933805349642856,5.275407446092782,-0.5974485340178568,3025.2808184805986,1.0721,13.355178,15.12132,0.0,1.0
Ti4S24Cl6O,mp-1208924,60,-4.892604002642856,2.0089518704780733,-1.2725326826183805,3933.6307554993878,1.0792,9.6637603,28.79859035,0.0,1.0
TlAs5PbS9,mp-1209142,61,-4.37870818203125,4.276321513747338,-0.5895331272265629,3338.772406646033,1.5736,8.30963841,36.08888796,3.0,-1.0
Sn2(PCl8)3,mp-1209397,135,-3.046652466206897,2.1671928164332472,-1.1724654063432511,3620.260813928136,0.0068000000000000005,14.743366199999999,15.67009406,0.0,1.0
Rb3Sb2I9,mp-1209693,7,-2.6503059957142865,4.074595547815445,-0.8706118362500003,2676.7916230801434,1.9451,8.426432,25.706019075580592,3.0,-1.0
RbZr6BCl15,mp-1209995,51,-5.548540461413043,2.8898222986257784,-2.1679363625246384,2701.6570221708025,0.002600000000000157,9.97208,18.976638,3.0,-1.0
Rb4Zn(MoO4)3,mp-1210004,61,-6.0999999484375005,3.6356989397498136,-2.1963102176875005,3241.3081646606524,4.068899999999998,11.14163198,22.74037404,3.0,-1.0
Rb(Nb2Cl5)3,mp-1210315,51,-5.392630978522726,3.284505659812301,-1.738261480177273,2375.562397452144,0.9742000000000002,9.497639999999999,18.222761,3.0,-1.0
Sc57Ru13,mp-1210377,200,-7.165305371785713,4.299358291183983,-0.2864795932142856,2994.3578523248766,0.02079999999999949,14.41344849,14.41344849,3.0,-1.0
SCl4,mp-1210452,218,-2.4532053293125,1.9029358441739417,-0.7555265745455,4855.311160042514,2.6189,16.9331994,16.9331994,0.0,1.0
Rb2Ba(Ge4O9)2,mp-1210469,165,-6.302457954425288,4.794034763782258,-2.2581048422701158,2446.880716739784,2.9384,12.007059646951227,19.59786879,3.0,-1.0
Nb6TlCl15,mp-1210630,51,-5.366831927386363,3.6324302191353697,-1.6496842968818184,2365.4696593761937,0.951,9.482838000000001,18.202189,3.0,-1.0
LiCa11Sb9,mp-1211639,136,-3.916846558333334,4.142980409842396,-1.0058211913492063,2474.8105090121508,0.8026999999999997,11.96136,17.2974,3.0,-1.0
KZr6NCl15,mp-1211782,51,-5.653136218369565,2.9578439988983267,-2.2115344981208693,2542.5754645934303,0.0,9.750281,18.603944,3.0,-1.0
KHf6CCl15,mp-1211876,51,-6.033893838369568,4.354708440213595,-2.16919482106087,2522.577674042681,1.1511,9.739911,18.577338,3.0,-1.0
K10Tl7,mp-1212012,14,-1.729606832352941,3.784372672528215,-0.1039856364705879,3197.30426901111,0.0,10.222987,22.957235999999998,3.0,-1.0
Na2Sr(Ge4O9)2,mp-1212069,165,-6.299771835574712,4.375271511799179,-2.2402895264655185,2283.337655699539,2.9682000000000004,11.595674735985956,19.60863932,3.0,-1.0
K4Zr3Te17,mp-1212265,14,-4.159580419895833,4.977267533604199,-0.6795465245624998,3468.715619494439,0.8644000000000003,10.410004999839966,30.95807513,3.0,-1.0
Li12Ge7,mp-1212365,62,-3.2287569788815778,3.0259123151333203,-0.31990069546052635,2597.988103238793,0.0,8.80761884,20.12935861,3.0,-1.0
K2Sr(Ge4O9)2,mp-1212505,165,-6.305682800574712,4.352811704800222,-2.2602869238563232,2368.8615614184478,2.9798,11.817720816236804,19.58581355,3.0,-1.0
NaV4Bi13O30,mp-1212549,5,-6.2871301706250025,7.31087868022501,-1.9358242000173609,3110.338695514637,2.8099000000000003,11.666199374619625,26.99214812326738,3.0,-1.0
K2BaNb2S11,mp-1212599,14,-5.320377984296875,2.9461332686285986,-1.4112987755703124,3400.0681634764405,0.9839000000000002,12.91854058,17.779290623675067,3.0,-1.0
K7Nb14(P3O20)3,mp-1212978,51,-7.963686528555558,3.5299069240478653,-2.934235816701587,2646.682370435392,0.09270000000000024,6.5515075,37.45044162,3.0,-1.0
KGaGeO4,mp-1213396,173,-5.9409301275000015,3.596521286443814,-2.2631895304285714,2719.9222375086943,3.1871,8.78912392,18.903409145740927,3.0,-1.0
In2Bi4Pb4Se13,mp-1213414,55,-4.000840648586957,7.2410421369788365,-0.4634083794769026,2679.2634818268343,0.9121,4.199601,28.03919,3.0,-1.0
CsKZr6BCl15,mp-1213422,51,-5.465990499270832,3.1207496246813338,-2.1835254358957368,2685.9232649737123,1.0097999999999998,9.904058000000001,19.004399,3.0,-1.0
CsZr6CCl15,mp-1213455,51,-5.681826716521739,3.036141823053018,-2.1941679555143927,2677.860940447186,1.1421,9.940119000000001,18.914564000000002,3.0,-1.0
CsHf6CCl15,mp-1213477,51,-6.031204454565217,4.444103114275744,-2.1758531144274365,2612.039314026032,1.2179,9.863999,18.746757000000002,3.0,-1.0
Na16Zn11Sn16,mp-1213542,72,-2.462340710813953,4.526630423427632,-0.15897408624031015,4382.530735528042,0.034900000000000375,16.14366376,18.904806848645002,3.0,-1.0
K2Re3TeC3(SN)3,mp-1213559,206,-7.583397958583332,4.470168451494797,-0.6064373824176651,2789.4958997727417,2.0933,15.359693141647098,15.359693141647098,3.0,-1.0
CsRbZr6BCl15,mp-1213588,51,-5.4662251035416665,3.1558574999136764,-2.1891710766040706,2753.637477713147,1.0453,10.011486,19.169391,3.0,-1.0
Fe2(WO4)3,mp-1213596,14,-7.217943648602941,4.881145460748895,-2.02715713125,2327.4826299445317,2.6699,9.46047634,16.172074564010632,3.0,-1.0
Cs(Nb2Cl5)3,mp-1214012,51,-5.3886976755681815,3.334978287476002,-1.7381977999695932,2434.089741148921,0.9408999999999998,9.590717999999999,18.308742000000002,3.0,-1.0
Cs2Re3Se4I3,mp-1214500,14,-5.604481733854168,5.657261180867791,-0.7978092292905897,3571.559385423091,2.0776,10.376168308892408,29.89910774,3.0,-1.0
Ca3Al2O6,mp-12147,205,-6.95029234469697,2.9432046452273166,-3.4064792435606064,3658.598393355912,4.2749,15.40889798,15.40889798,3.0,-1.0
Cs3(Na13In24)2,mp-1214812,223,-2.337540178766233,4.785586681259741,-0.14341051916181535,4516.191908656168,0.008099999999999774,16.52941421,16.52941421,3.0,-1.0
Ba7Sn3Te3Se10,mp-1214827,62,-4.3966635681521735,5.147248102242687,-1.359684048953804,3212.933696715761,1.235,9.513341,25.64583,3.0,-1.0
Ca21(Cd2Bi9)2,mp-1214964,12,-3.4659246266279067,6.138931213900642,-0.7722089498837209,2733.5658423292707,0.15200000000000016,12.42880168569702,17.727651825511014,3.0,-1.0
Cs2ZnSi5O12,mp-1214991,61,-7.0650735117500005,3.2702232134465654,-3.008818307793104,2695.8416295133843,4.2057,13.87132447,13.99782556,3.0,-1.0
C6N7Cl3,mp-1214997,15,-7.352738194010417,1.7893664670173015,-0.17839179128791707,3078.7839847836135,2.7092,13.848530342985061,19.8329573692318,0.0,1.0
BaNa2(Ge4O9)2,mp-1215058,165,-6.313293637298851,4.51225448020024,-2.2458978945114962,2323.775118427301,3.0309,11.713008241725097,19.55809639,3.0,-1.0
Ag16HgAs4S15,mp-1215118,5,-3.5995356997916668,5.570459025123106,-0.36742742086226815,3227.968126779462,1.1099,15.271651579709511,15.957102536387751,3.0,-1.0
Ba21(Cd2Bi9)2,mp-1215155,64,-3.508279585523256,6.6080207567456615,-0.8568711192441859,7131.810149222151,0.32220000000000004,13.632306427350507,38.41398959,3.0,-1.0
Y19Mg97,mp-1217184,38,-2.440386222844828,2.3518193437563304,-0.04305763660919568,2857.304120523345,0.0,9.704281569876883,32.113576271883176,3.0,-1.0
TlMo3Br7,mp-1217483,16,-4.9389908055681815,4.7662627098506585,-0.724711910113636,2930.780629937028,2.2451,14.2711188,14.37965397,3.0,-1.0
VSi3Bi61O100,mp-1217882,146,-5.905905156545456,8.766419712895518,-1.7511385631212126,2743.36530101798,2.0010000000000003,14.59092977822553,17.098634738587865,3.0,-1.0
Sr14GaAs11,mp-1219124,45,-4.100955948557692,4.568149913349338,-1.10360458301282,3083.296805405979,0.5303,16.20440155286806,16.20440155286806,3.0,-1.0
Sr21Hg109,mp-1219820,1,-0.8133583086923076,10.995341018539962,-0.2858178001923077,3579.876781102796,0.0,9.92427329007532,26.62654947719491,3.0,-1.0
Rb16O3,mp-1220248,22,-1.9969675297368417,1.7665311681776688,-0.5008863946710527,2661.1076690289897,0.0,15.031275839538107,16.459398054305055,3.0,-1.0
Rb2Sn4S9,mp-1220891,19,-4.287626941333333,3.1638074039401585,-1.003875983541668,3923.228137489148,1.6693,12.01747086,27.11330801,3.0,-1.0
Rb3Na3Sc2(MoO4)6,mp-1220926,14,-6.796210628289473,3.439599441405261,-2.445307299144736,2655.067284290185,3.454,11.001908300000002,18.9879583745057,3.0,-1.0
Na5Si51,mp-1220932,12,-5.0353413699107135,2.136672021445403,0.0229492747916668,2405.01826393964,0.0,10.420302020239383,25.584432930155106,3.0,-1.0
Na7Si51,mp-1221185,12,-4.921683844310344,2.1908227812750107,0.007515820114942415,2415.2738053197368,0.0,10.434895552332328,25.61032577127048,3.0,-1.0
Rb5Mo3O3F14,mp-1222256,164,-5.263844210066666,3.288418669212628,-2.8849923007830665,3118.067593866764,1.1405,8.314810920024428,20.809072259003727,3.0,-1.0
Na17(Mo15S19)4,mp-1224118,6,-7.215279744313724,4.6030622807909065,-1.0908686373474945,3096.708724926,0.0,9.648568206263054,38.35038586,3.0,-1.0
Na34Cd6Ga92Cu7,mp-1224252,160,-2.7044878349640293,4.757878698170613,-0.13243929649880112,2902.1630602204273,0.15600000000000014,15.396420024201193,15.396433489975102,3.0,-1.0
K9Ta2VS12,mp-1224624,1,-5.0882239221875,2.646870351620969,-1.5686851615416677,2884.603562912414,1.8268,9.335805,21.82888093374413,3.0,-1.0
Mn5Cu(Te2O5)6,mp-1224824,1,-5.936840346458332,4.9781454574867405,-1.6328181904286645,3134.7422687517314,0.3717999999999999,8.942308427299574,22.148695291498623,3.0,-1.0
K18Na46Tl31,mp-1225049,187,-1.734615135263158,3.927045378466359,-0.1170106574456141,3423.868131961814,0.0,11.391283717915424,30.467796999999997,3.0,-1.0
K30Ga9Sb19,mp-1225850,148,-2.8373632429310343,2.9296642404026363,-0.4405382171982759,4663.52760136815,0.28669999999999995,16.488619188656667,18.889587912024165,3.0,-1.0
K30Ga9As19,mp-1225940,148,-3.0501528539655176,2.7147405511241747,-0.4796687569396552,3944.039627940775,0.18009999999999993,15.835991049123168,17.761109646367604,3.0,-1.0
K4Re6TeC6S7N6,mp-1226951,199,-7.634603281083332,4.364877090183803,-0.6466530736884996,2711.406970529223,2.1312,15.21500851178237,15.21500851178237,3.0,-1.0
Mg2Co3Sn10,mp-1226994,8,-4.376341549833333,7.041382801545005,-0.06825941416666599,2664.8485548319313,0.0,9.4826233087245,34.16786128073707,3.0,-1.0
Cs3Bi11Se18,mp-1227437,62,-3.913474159296875,6.327264834437562,-0.5258806866712691,4323.761707823681,0.8376999999999999,12.83305593,23.95966775,3.0,-1.0
CdHg6(Sb2I3)2,mp-1227680,15,-1.9050528775,6.400271798990665,-0.23416743044117666,2661.3344601188664,0.8608999999999998,13.816642557400446,13.881916503442064,3.0,-1.0
CsZr18(PI14)3,mp-1227847,12,-4.714014827734375,5.06104337021745,-1.0421023101350837,4723.257398771758,0.0,10.959110599964447,39.51809328086149,3.0,-1.0
CsTa4P3S19,mp-1227943,29,-5.9917054094444415,3.331911277679555,-1.1564025225192711,3107.5698217779322,1.1991,8.74631642,27.55663733,3.0,-1.0
Bi19(S9I)3,mp-1227984,146,-4.223262599591837,6.619532321413921,-0.7078867599872449,2617.463385074171,1.2928999999999995,16.273897719899832,16.27389776962145,3.0,-1.0
Bi19(S9Br)3,mp-1228012,146,-4.255925252040816,6.585400519777912,-0.7336363149872448,2559.9212572545434,1.3293,16.126476068811346,16.126476343329813,3.0,-1.0
K4Cu4Sn7,mp-1228096,111,-3.4634655052777776,4.390583922002349,-0.20310380841111106,5634.706449763401,0.7236000000000002,17.794432800010462,17.795205060013227,3.0,-1.0
K38Nb7As24,mp-1228670,36,-3.733853587826087,2.7838915503235335,-0.4769965300579711,4693.351102580364,0.013100000000000113,10.58266497,36.52699305,3.0,-1.0
Bi11(Se4Cl3)3,mp-1228808,2,-3.767249302109375,6.258648628920962,-0.7664376167176563,3783.855239721121,1.1265999999999998,8.272030020513652,37.17266207643637,3.0,-1.0
Cs8(Re4S9)3,mp-1229160,4,-6.46889772180851,5.448042961885681,-1.1440408792090049,2538.0216654005912,1.4582000000000002,10.367642,17.850067000000006,3.0,-1.0
Ba10Si69,mp-1229228,47,-5.0740467411392425,3.292248678452351,-0.09257363126582273,3340.164639974335,0.0,10.34011045,31.17410789,3.0,-1.0
Ca65Ga24Sn19,mp-1229248,164,-3.1478003613888887,3.371181552396892,-0.5624286067129629,3218.401609374132,0.1482000000000001,11.487694866070022,28.160724394951306,3.0,-1.0
Ba51(Pd12O5)2,mp-1229286,1,-4.061782575176472,5.334986808954653,-0.9483551580294114,3024.694484324896,0.0,11.23115165176092,27.690069718956146,3.0,-1.0
CuAg64Hg3(As4S15)4,mp-1229314,1,-3.625238206388889,5.5236723837981065,-0.36677210589699055,3214.111199074721,1.2275999999999998,15.226407112213499,15.983641036386313,3.0,-1.0
CsMg(PO3)3,mp-1229321,7,-6.8871460749404765,2.853607041817245,-2.819536844575857,2752.1470405771,4.8472,12.205875630912047,18.518884127482494,3.0,-1.0
Ba16Zn9Ge80Pd3,mp-1229324,6,-4.266336866481482,5.687215200607469,-0.3087155738888891,2603.3805960597315,0.0,10.922083332239865,21.80441300498264,3.0,-1.0
Ba13Ca2Re9(ClO15)3,mp-1229338,143,-7.453963175,5.881531085995974,-2.7904206161254166,2466.2196432588084,2.4046,7.8886214011736655,19.00000814601914,3.0,-1.0
SiO2,mp-1249637,12,-7.901850142559524,1.5295459028403715,-3.262968490059525,3652.881764598279,5.7045,12.573582169877255,22.815950224908,3.0,-1.0
SiO2,mp-1250551,64,-7.903739060535715,1.8042897490220704,-3.2648574080357164,6193.2961040541395,5.6892,13.857882850000115,24.31510144000011,3.0,-1.0
SiO2,mp-1250639,148,-7.907025204472222,1.7156107696674407,-3.268143551972222,6978.668765898773,5.6677,13.976339322437436,41.25255305036549,3.0,-1.0
SiO2,mp-1257168,178,-7.8931813268888895,1.5798091773189993,-3.2542996743888875,3789.280206941148,5.5917,12.08487434292201,29.960619350013665,3.0,-1.0
SiO2,mp-1268079,14,-7.901387838697917,1.6058095714647769,-3.2625061861979163,3976.4546616143907,5.6742,13.275447885449516,22.011220262081064,3.0,-1.0
CsGe,mp-1273,218,-2.91973611328125,4.035667211001597,-0.16052099974676715,2706.397609090794,1.3382999999999998,13.935756,13.935756,3.0,-1.0
CsSi,mp-1370,218,-3.2204343896875,3.313244603919191,-0.0600761936530172,2581.945344406854,1.5631999999999997,13.718785999999998,13.718785999999998,3.0,-1.0
Al8(Pb3O7)3,mp-13875,205,-6.543732631513159,6.567308998631525,-2.529590391677631,2444.182021705053,2.8746,13.470317999999999,13.470317999999999,3.0,-1.0
Ga8(Pb3O7)3,mp-14216,205,-5.781623851973684,7.161863124720327,-1.918530102138157,2558.3932549028336,2.6963,13.676945000000002,13.676945000000002,3.0,-1.0
Sb9S4F39,mp-14673,14,-4.5786123480769225,3.5125149501940687,-2.5314118510367303,3715.8810204556103,1.7301,13.49557515,17.3228342220466,3.0,-1.0
Sr4Al6WO16,mp-14865,142,-7.232023439861113,3.649482010051909,-3.3146473671450623,3466.0583241542,3.6877,16.512933225702373,16.512933225702373,3.0,-1.0
Rb2CdSi5O12,mp-15125,61,-7.006120894187499,3.0600316200514674,-2.9581952126874995,2673.188045950917,3.8268,13.622084,14.125496,3.0,-1.0
Cs2MnSi5O12,mp-15126,61,-7.401617409187501,3.178096638378945,-3.0343065697613616,2730.22045116263,3.2917999999999994,13.90224237,14.014981599999999,3.0,-1.0
NaCd(PO3)3,mp-15250,19,-6.582642695892857,2.9600982277003034,-2.533472068771258,3341.7612723945317,4.7064,14.91507921,15.01658154,3.0,-1.0
Sb9Se4F39,mp-15380,14,-4.544748491394231,3.735481541611574,-2.495784793524712,3827.625207264585,1.9538,13.73916703,17.4436897248756,3.0,-1.0
Sr6Sb6S17,mp-16061,19,-4.671878520517241,3.9125334119281603,-1.4321639447629304,3058.141466465428,1.7427,8.38687,23.178719,3.0,-1.0
Ba6Si25,mp-16094,213,-4.932573431774194,3.565600318115223,-0.1859064808064512,2842.8849149399653,0.04319999999999968,14.166191,14.166191,3.0,-1.0
CsIn(PO3)4,mp-16464,205,-6.838963956157408,3.2029751665545843,-2.6029520021138928,3506.3596807135937,4.3152,15.19213536,15.19213536,3.0,-1.0
MnAg(PO3)3,mp-16552,19,-7.013847790178572,3.2827380923287337,-2.3878292811961512,3235.1248044366216,3.0005000000000006,14.77186914,14.81141551,3.0,-1.0
Nb6I11,mp-23226,56,-5.003512045000001,4.973984556457318,-0.4522197505882359,2608.513264256242,0.0,11.638269000000001,16.249222,3.0,-1.0
Ta2Cl5,mp-23274,230,-5.993391755357143,4.8025105191302995,-1.7098474491142863,4474.14743563687,0.0,17.979491054139658,17.979491054139658,3.0,-1.0
CuW3Br7,mp-23370,201,-5.4080555519318185,5.9690618994599856,-0.4596853828409082,2613.646364440705,2.0638,13.774704000000002,13.774704000000002,3.0,-1.0
Sn2SI2,mp-23386,62,-3.521857207,4.805949829052046,-0.6138254456250001,2169.6856478165105,1.6167000000000002,4.429926,26.536764,1.0,1.0
SbIF5,mp-23403,14,-4.121314111071428,3.853588191673423,-2.2990620362071432,2369.3451074051322,0.5522,8.560844,17.058656213020118,0.0,1.0
Bi2MoO6,mp-23423,14,-6.407626208541667,7.167712478189242,-1.899992379374999,2260.7115010077605,2.5896,5.6559620000000015,22.855297,3.0,-1.0
K2CoCl4,mp-23515,33,-3.7941344720238095,2.2104770157912594,-1.7449173868866668,2514.536425917414,0.7890999999999999,7.3631990000000025,27.232242,3.0,-1.0
Rb3BiBr6,mp-27147,62,-3.070188315875,3.881670370054772,-1.4048687391250003,3233.4332650843025,3.3,8.655419,27.337459999999997,3.0,-1.0
As(S2F3)2,mp-27578,14,-4.292783150625,2.5104899627292894,-1.8314759983195457,3356.6453499231793,0.0,13.694594,16.655277265170938,0.0,1.0
Bi6Br7,mp-27709,58,-3.1721396209615382,6.6862725233175375,-0.4953171871153844,3602.4935503783336,1.4109000000000005,9.194298,24.46221700000001,3.0,-1.0
Ti2PCl13,mp-27921,62,-4.046704231328125,1.9151091753782823,-1.7026834443042558,4075.913336965478,2.3096,11.139691000000001,30.165919,0.0,1.0
AlP2I9,mp-28046,61,-2.6512709029166666,3.5022475308334533,-0.2939158122619047,4669.546937631664,1.6561,11.48292,21.606120999999998,0.0,1.0
Ba(BiS2)2,mp-28057,176,-4.630215412380952,5.677886341618327,-1.2600727098809523,2398.902177668388,0.9522999999999996,4.164782,25.7896127398074,3.0,-1.0
Sb4F15,mp-28180,29,-4.682623968355263,4.088260677865123,-2.6918736016631577,2508.573515748664,3.6879,11.182028,19.657543,1.0,1.0
Tl2PS3,mp-28217,61,-4.160433728229166,5.213841870998478,-0.7345068245535717,2731.012187304359,2.2405,11.727507000000001,16.757858,3.0,-1.0
Ba4Sb4Se11,mp-28238,58,-4.330370961973684,5.255461820061557,-1.0331649338569078,2407.532780623889,1.1141,9.119676,28.312146000000002,3.0,-1.0
SrBiSe3,mp-28476,19,-4.2264661205000005,6.0906203802344825,-1.0130161212395834,2327.158785571961,0.4969000000000001,4.267801,33.812571999999996,3.0,-1.0
CsI3F16,mp-28578,218,-3.5486847825,3.636697965274939,-2.1388726645985514,2986.545817017467,4.1717,14.40090307,14.40090307,3.0,-1.0
Na5InTe4,mp-28597,60,-2.9987239278750004,3.607745210456372,-0.8089090745416666,2725.416330814217,1.216,7.492578999999999,20.438448,3.0,-1.0
KI3F16,mp-28634,14,-3.5481235225,3.454538891929107,-2.127561575852,2783.2952162617244,4.1785,14.006269,14.171308999999999,3.0,-1.0