pretty_formula,task_id,spacegroup.number,final_energy_per_atom,density,formation_energy_per_atom,volume,band_gap,min_abc,max_abc,Dimension,Dim
BaLi2(MgGe)2,mp-569396,166,-3.024086384285714,3.534730898457031,-0.4264531880952381,162.11994287733177,0.0,9.162717133470457,9.16271732791632,3.0,-1.0
LiB6C,mp-569450,38,-6.645877905,2.3226450698551053,-0.2443711310416665,119.8483290701334,1.4216999999999995,4.704635,5.320009645062873,3.0,-1.0
NaLi5N2,mp-569525,6,-3.67778084375,1.3930517906493571,-0.33225447809499986,102.16545025211457,0.3468,3.6477169999999997,7.344735620199544,3.0,-1.0
ZrAl3,mp-569775,221,-5.4104483875,4.1274211337308,-0.4643413574999995,69.26666877821744,0.0,4.1068430000000005,4.1068430000000005,3.0,-1.0
LiZnGe,mp-569788,187,-2.8469055555555562,4.818966592257338,-0.2496741116666669,149.88372796763127,0.0,4.286429764836233,9.419599,3.0,-1.0
MnBr2,mp-569843,166,-4.956028326666667,4.076517666758473,-0.8108418098850579,87.47519973435922,1.5366,7.079293606427197,7.079294029254682,2.0,1.0
Li15Si4,mp-569849,220,-2.883798314736842,1.218829580805843,-0.2345825736842107,589.8040388901481,0.0,9.15046598560576,9.15046598560576,3.0,-1.0
SrP3,mp-569867,12,-5.12335611375,3.332564285968392,-0.6410214043452376,359.8380499958909,0.3780000000000001,6.852787716699827,8.634153206404031,3.0,-1.0
K3Bi,mp-569940,194,-2.17040407625,2.8915169975779085,-0.3650962885000002,374.7464618540856,0.03700000000000003,6.2457184738252485,11.092824,3.0,-1.0
Al6Fe,mp-570001,63,-4.616340670714286,3.428138323625311,-0.19584669071428604,210.9344277132789,0.0,4.916360435318183,8.816226,3.0,-1.0
Sr(Li2P)2,mp-570097,166,-3.708867432857143,2.3467496023947207,-0.8300467981632654,125.47820314584487,1.1691000000000005,8.236494202352418,8.236494334404231,3.0,-1.0
Cu3SbS4,mp-5702,121,-4.34575471375,4.611828930639703,-0.5559321240625001,158.6636961202993,0.0,6.627007216870522,6.627007216870522,3.0,-1.0
Sc3In,mp-570428,221,-5.72442635,4.451605957911759,-0.28715358874999986,93.1378300147815,0.0,4.5328919999999995,4.5328919999999995,3.0,-1.0
Li2Ca,mp-570466,194,-1.9485908566666668,1.0832510323586284,-0.007442318888888798,330.865830198707,0.0,6.15276492882062,10.092080000000001,3.0,-1.0
SrAlSiH,mp-570485,156,-3.996254345,3.1024453067826654,-0.4712274038216666,76.91066305597447,0.6204999999999998,4.229390707965511,4.964784,3.0,-1.0
NbI3,mp-570722,193,-4.12598529375,4.3384468230201545,-0.4576495725000002,362.5556315854074,0.0,6.783403999999999,7.855940337224817,1.0,1.0
Si3As4,mp-570744,215,-5.0001907857142855,4.117944328192042,-0.012702831428572585,154.82292473672427,0.4114000000000004,5.369639,5.369639,3.0,-1.0
BaLi2(MgSi)2,mp-570771,166,-3.132114728571428,2.6822395294977817,-0.30525691380952324,158.48002797070308,0.0,9.113443309957107,9.113443855753598,3.0,-1.0
KNa2,mp-570786,194,-1.241933405,0.9627854093729474,0.004634388444444415,586.9431474778121,0.0,7.4467669052668075,12.22165,3.0,-1.0
SrLi3MnN3,mp-570931,148,-5.816992391875,3.5813747518740016,-0.7625707810577298,190.47245777247886,0.0,7.228237033394658,7.228237157520843,3.0,-1.0
SbI3(BrCl3)2,mp-570962,2,-2.310536583333333,2.9890374225488996,-0.6857034145466668,486.0998703448587,1.1707,7.668201,8.088470474900184,1.0,1.0
NaLi2N,mp-570998,191,-3.5309718425,1.530903871240504,-0.25972930809499983,55.18680008287426,0.0,3.6583410406763615,4.7614160000000005,3.0,-1.0
KSnSe2,mp-571016,108,-3.70781175875,4.290612372350387,-0.6798633194218748,244.3843121134738,0.0,6.848724690577947,6.848724690577947,3.0,-1.0
OsCl4,mp-571035,65,-4.10847704,4.000113959527801,-0.8599293686079996,137.83825119249457,0.0,3.6293849999999996,6.1723451884718825,1.0,1.0
Al5Mo,mp-571053,167,-5.1672357925000005,4.1204046012447915,-0.2383154291666673,186.0650347517704,0.0,9.199765486895958,9.19976577441301,3.0,-1.0
BaAlSiH,mp-571093,156,-4.0540838425,3.7511077174063314,-0.4716845071549995,85.61512097687623,0.8196999999999997,4.334227520400492,5.2625519999999995,3.0,-1.0
FeCl2,mp-571096,164,-4.76907315,3.183900058250169,-1.1098382055066671,66.10602826091561,0.6234000000000002,3.5141587786328037,6.181128,2.0,1.0
Sr3(AlGe2)2,mp-571216,12,-3.9513142222222215,4.4669183835238835,-0.5011245733333329,225.78951337066243,0.0,6.710347529192284,8.95514925076305,3.0,-1.0
Al3Mo,mp-571247,12,-5.841679506875,4.822353877488575,-0.3210868768750004,243.63522236522343,0.10940000000000084,8.397252076114542,8.419415790061505,3.0,-1.0
Cs2FeNi(CN)6,mp-571284,225,-7.66535647625,3.2946547839882285,-0.2205776243838793,270.3780489875286,1.4233,7.258197964652245,7.258197964652245,3.0,-1.0
Be12V,mp-571438,139,-4.253014457692308,2.448925848071334,-0.10248673076923118,107.87232063599043,0.0,5.504273699366884,5.504273699366884,3.0,-1.0
K4ZnAs2,mp-571461,166,-2.6014465228571426,2.353151335172881,-0.4557927788571427,262.25755071415506,0.8536999999999999,9.647080070249704,9.647080114570675,3.0,-1.0
Rb2In3,mp-571505,139,-2.172225863,4.309028421913176,-0.12900199599999987,397.2239129206614,0.06469999999999976,9.475838174822584,9.475838174822584,3.0,-1.0
K,mp-573691,64,-1.0783566475,0.8777080958565258,0.03204229950000004,591.7617020432233,0.0,8.657334853477773,8.914782,3.0,-1.0
Cs2SiAs2,mp-573721,72,-3.7601314410000004,3.971755382358882,-0.4532603261724134,371.04346898115466,1.1285999999999996,8.923863602307579,8.923863602307579,3.0,-1.0
MgGa,mp-574266,88,-2.4625062,3.9722124926708813,-0.14831842375000015,314.458841549596,0.0,8.045071274414168,8.045071274414168,3.0,-1.0
B13C2,mp-576,166,-7.090861415333332,2.4386478532291345,-0.07181778727777725,112.05620147646349,0.0,5.195927862340373,5.195928042098061,3.0,-1.0
AgNO2,mp-5770,44,-5.41656055,4.04146482234625,-0.5974707678866666,63.22294054361002,1.77,4.513498844909679,4.513498844909679,1.0,1.0
K,mp-58,229,-1.10082171,0.8911581989182845,0.009577237000000016,72.85379258862662,0.0,4.557129020411971,4.557129020411971,3.0,-1.0
CsK2Sb,mp-581024,225,-2.18763302,3.2904208305860383,-0.3763326434827583,167.98168666776368,0.8613999999999997,6.193350306514237,6.193350306514237,3.0,-1.0
MgZn,mp-583266,194,-1.5024292725,4.074428401070261,-0.07241744250000022,219.3784067210317,0.0,5.367085289603008,8.793994999999999,3.0,-1.0
LiAlGe,mp-5920,216,-3.717183853333333,3.2458536020659188,-0.29134166944444395,54.51609347653408,0.08689999999999998,4.256113899728013,4.256113899728013,3.0,-1.0
K,mp-604318,194,-1.0986805025,0.8863242870425809,0.011718444500000036,293.0045155561789,0.0,4.705534881292243,15.280084,3.0,-1.0
K,mp-604325,15,-1.03685783,0.8442583443643122,0.07354111699999999,153.8018665045751,0.0,4.414653135727087,8.439814929525706,3.0,-1.0
O2,mp-610917,166,-4.935852455,1.4668662819670022,0.012103013750000002,36.22365456043346,1.3136,4.2052761010312985,4.205276447362289,0.0,1.0
Hg,mp-611219,166,-0.21932567,3.9533286686092426,0.08435469500000001,84.25495558062774,1.7609,8.027599087823768,8.027599130707635,0.0,1.0
O2,mp-611836,12,-4.937990895,1.4388402246389522,0.009964573749999595,36.92922714726946,1.3522999999999998,3.3089568672163128,4.273827509046428,0.0,1.0
CsSnSe3,mp-613162,2,-3.760248683,4.348472507420726,-0.6817069509924565,373.0807911753407,1.0499000000000005,7.22774,8.206896832321094,3.0,-1.0
NaO2,mp-614,205,-4.525070945833334,2.1681339162023283,-0.8855365611111109,168.45946059608542,0.0,5.522874,5.522874,3.0,-1.0
YMg,mp-615,221,-4.144016135,3.4193335917896244,-0.11064055333333388,54.97885308394291,0.0,3.802465,3.802465,3.0,-1.0
Al3Ni,mp-622209,62,-4.65913195125,4.034331991661709,-0.4049159087500005,229.90113941802872,0.0,4.806885,7.2943130000000025,3.0,-1.0
FeCu2SnS4,mp-628568,111,-4.98177331625,4.436270678249759,-0.6605298734375005,160.918352436162,0.0,5.384191,5.466918,3.0,-1.0
SnSe,mp-628773,63,-4.1094136925,4.783404985340077,-0.35667202617187543,137.24063017904214,0.5120999999999998,5.945988064072868,6.125123,2.0,1.0
Li2GaSb,mp-631316,225,-3.14488487,4.452629278044221,-0.4011492510416663,76.58769327458977,0.109,4.76677510339244,4.76677510339244,3.0,-1.0
C,mp-632329,12,-9.214551855,2.0281271176628928,0.012228845000000987,19.667639561168443,0.0,2.4646862996202987,3.738129474550875,2.0,1.0
CoCl2,mp-632413,12,-4.150315213333333,3.4876563771146767,-0.9449752971733336,61.81889279234638,0.0682999999999998,3.538210479960173,5.534438175575367,2.0,1.0
Cs3Bi,mp-635413,225,-1.92659137,4.654771562608769,-0.2825310134482757,216.78920005268174,0.3573999999999997,6.742964608540668,6.742964608540668,3.0,-1.0
YB4,mp-637,127,-7.224510788000001,4.308481549542768,-0.5877031486666666,203.7283771992644,0.0,4.02709,7.112628,3.0,-1.0
Rb,mp-639736,141,-0.910334485,1.4770579166337583,0.0701995875,192.16933776002458,0.0,9.131082586410496,9.131082586410496,3.0,-1.0
I,mp-639751,71,-1.47330369,4.530400992465512,0.05070892499999991,46.514608863902204,0.0,4.792109299188719,4.792109299188719,1.0,1.0
Rb,mp-639755,139,-0.96429801,1.571697138639208,0.01623606249999998,90.29896240648092,0.0,4.904983790408588,4.904983790408588,3.0,-1.0
Cs2MnFe(CN)6,mp-640345,225,-7.94189686125,3.464063522210137,-0.2857698974873273,255.35513804069717,0.0,7.121200268438039,7.121200268438039,3.0,-1.0
Rb,mp-640416,1,-0.92377216375,1.499989699184075,0.05676190874999997,756.9258424297436,0.0,9.369484,10.436157700460646,3.0,-1.0
ZnCu2GeS4,mp-6408,121,-4.27593672375,4.288661968644926,-0.7792936896875005,152.32203752955468,0.34830000000000005,6.549219569267395,6.549219569267395,3.0,-1.0
Mg2CoH5,mp-642660,129,-3.663517379375,2.88225351233684,-0.3500722291374996,129.72370027704747,0.21219999999999967,4.451435,6.546652,3.0,-1.0
SrMg2FeH8,mp-643004,164,-3.7481879041666666,2.884567278108002,-0.47502644380222203,115.21236953415315,1.7253,4.500757338108888,6.567457000000001,3.0,-1.0
Mg2H4Ru,mp-643023,63,-4.052167907857143,3.5846143980483265,-0.4187541363542857,142.411068043923,1.0975,4.815997,5.486042156375122,3.0,-1.0
K3MnH5,mp-643245,140,-3.3501510416666664,1.7275966309077984,-0.16219697297279684,340.78342964506925,1.5962999999999998,7.943112121615558,7.943112121615558,3.0,-1.0
BaMg2FeH8,mp-643264,164,-3.764596119166667,3.3104957020825703,-0.4723105274133334,125.322091889139,1.4425,4.556551319594349,6.9698660000000014,3.0,-1.0
CaGe2,mp-643542,12,-4.13491311,4.241794909295891,-0.38436124666666655,72.56225416092421,0.0,4.2364736469521445,4.322572825715028,3.0,-1.0
Mg3MnH7,mp-643573,194,-3.670083729090909,2.3047558214039983,-0.33911070636319673,194.3989381897485,1.6666,4.6748792728471615,10.271229,3.0,-1.0
Li5H9Pt2,mp-643656,140,-3.6793827728125,4.855697043538593,-0.5016290412029165,296.7984707874263,0.0,7.278853323862696,7.278853323862696,3.0,-1.0
Rb3MnH5,mp-643697,140,-3.2954443933333333,2.7108227484896994,-0.15077861613946356,387.6042810256323,0.0,8.282791013073492,8.282791013073492,3.0,-1.0
Ca5Ge3H,mp-643912,140,-3.6633964905555563,3.1868503106691914,-0.6481943098466666,436.97930735254613,0.0,9.120215147432543,9.120215147432543,3.0,-1.0
Sr(AlH)2,mp-644229,164,-3.487980546,2.8375241699520917,-0.3559592987813332,84.03511796611319,0.0,4.539483598101,4.708876,2.0,1.0
Ca4Mg4Fe3H22,mp-644264,215,-3.879872857878788,2.4855975315865693,-0.5129717999890907,298.7862163581128,1.4456000000000002,6.685289,6.685289,3.0,-1.0
Y2H2C,mp-644278,164,-6.318768378,4.528940514302296,-0.5909291281146665,70.33763358192931,0.0,3.671901643018368,6.023862,3.0,-1.0
Mg7TiH16,mp-644281,225,-3.1766922683333334,1.8618052236216804,-0.22114064546888912,208.81906045428212,0.0,6.6592969057635525,6.6592969057635525,3.0,-1.0
Li2H2Pd,mp-644389,139,-3.592933646,4.037570709385807,-0.4974934727813334,50.30589750701565,0.0,5.6150886906516435,5.6150886906516435,3.0,-1.0
Cd2P3Cl,mp-644431,15,-3.6763287891666665,4.1991379674587455,-0.4530807756623805,279.34125319343343,1.3342,6.117361965691093,7.648606066867153,3.0,-1.0
CoCu2GeS4,mp-6498,121,-4.8637087525,4.377156522302148,-0.6359939453125003,146.78579549890082,0.0,6.465184002111464,6.465184002111464,3.0,-1.0
Be5Pd,mp-650,216,-4.294832965,4.675355101854835,-0.3153419424999999,53.801254325971115,0.0,4.23742931014194,4.23742931014194,3.0,-1.0
Fe2Cu6SnS8,mp-651268,115,-4.903822801764706,4.6847542533807465,-0.5903677094117654,307.7372467137357,0.0,5.315702,7.608687,3.0,-1.0
VAg(PSe3)2,mp-6543,5,-4.559408228000001,4.364013947088939,-0.18755796178720274,264.2688581799528,0.0,6.439866721866999,7.674884147233625,2.0,1.0
Na3As,mp-655,185,-2.57077387875,2.3377899233217208,-0.42000511499999976,613.2368133164676,0.06400000000000006,8.841742705197715,9.057782000000001,3.0,-1.0
Rb,mp-656615,1,-0.95759153875,1.5771131040328392,0.02294253375,719.9109333297397,0.0,8.112322,12.01814372176835,3.0,-1.0
CsFe2Se3,mp-662563,63,-5.184839059166666,4.797508373711265,-0.4643152983270475,333.3016787922159,0.0,5.468751,7.907154692464602,3.0,-1.0
Sc,mp-67,194,-6.332469105,3.0230508959312035,0.0,49.38788708526634,0.0,3.3186556514926338,5.17804,3.0,-1.0
Li5GeP3,mp-674531,9,-3.9107347733333335,2.128998448972024,-0.5321236874867729,312.4004076061762,0.5321,7.156900252651633,8.547549111449902,3.0,-1.0
CuSi2P3,mp-674984,8,-5.2312066575000005,2.667371997793621,-0.03292460845238073,264.75060940126383,0.0,6.441671685555076,11.476084258633733,2.0,1.0
K6InP3,mp-675132,2,-2.8915288589999997,2.1817927416044123,-0.3261353593714286,673.3038510856376,0.7434000000000001,8.889824,10.093011355849203,3.0,-1.0
Li2CuP,mp-675589,164,-3.87715593125,3.4884746366625907,-0.5445713650595239,103.20003980965488,0.0,4.016499970295157,7.386755,3.0,-1.0
Li5SnP3,mp-675621,15,-3.8396405244444436,2.5273107700949424,-0.5291912163756609,323.7045726741267,0.0,7.331192541483822,8.498738096081148,3.0,-1.0
Li7B18O,mp-675734,6,-5.714506378461538,1.8022913046235844,-0.4130764780608969,238.7992554528629,0.0,4.123178,8.17631494847312,3.0,-1.0
Li5TiP3,mp-675800,15,-4.4993074066666665,1.9409146886176296,-0.7570891917460314,300.28466375980605,0.6735000000000002,7.1622398757899735,8.237311549223447,3.0,-1.0
Li11TiAs5,mp-675818,8,-3.780940025294118,2.924129397146676,-0.7109849914705886,283.2706586938576,0.28790000000000004,7.422476063902128,10.601601100578442,3.0,-1.0
Li9CrN5,mp-675918,2,-5.163203146666667,2.213823678816842,-0.7234888661266666,276.776453305208,1.0550000000000002,5.853145,7.622334300740031,3.0,-1.0
Li5GeAs3,mp-675964,9,-3.6441297172222233,3.269480478986408,-0.5169077835185184,337.35102616161254,0.0,7.390850724586514,8.692648318269006,3.0,-1.0
NiPS3,mp-676040,12,-4.909807912,3.1770513301547467,-0.5873294835892857,194.28794119527507,0.0,5.821405871013117,6.895947376475839,2.0,1.0
Li2CuGe,mp-676117,31,-3.44641323375,4.738364833762746,-0.3113931691666667,105.18133803075837,0.0,4.216425,5.823428,3.0,-1.0
FeCl3,mp-676241,1,-4.18373714375,2.200413099857065,-1.125848191195001,244.8141022031569,0.6658,3.7550220000000003,8.877341178531891,1.0,1.0
Li11TiP5,mp-676324,8,-4.0060726988235285,1.8027584569889668,-0.7143037072268908,257.0696862805553,0.3623999999999996,7.189087474907577,10.270458681724492,3.0,-1.0
Cd3AsI3,mp-676464,6,-2.156379942857143,4.769259644547407,-0.4421191528571429,276.0571668115464,0.8420000000000001,4.561308,8.004934065991362,3.0,-1.0
Li5TiAs3,mp-677039,15,-4.219497704444445,3.0693272232414666,-0.7286686416666667,332.5450340644124,0.5862,7.414799097022453,8.515289843713191,3.0,-1.0
CsO2,mp-684583,58,-4.4252312683333335,3.3754011934274315,-0.9254468318103448,162.25031445838073,0.0,4.8488940000000005,6.8574399999999995,3.0,-1.0
CuS2,mp-684604,5,-4.12153877,3.536110748651636,-0.4398099687500003,59.955980153637455,0.0,3.713973102748592,4.977383038969877,3.0,-1.0
K5As4,mp-684799,2,-3.0708157044444437,2.501741379161966,-0.38320810944444417,328.67595936011173,0.0,6.4749,8.386801869869469,3.0,-1.0
K2O,mp-684904,15,-3.368796795,1.7150055341492925,-1.2133090074166664,182.40890166578026,0.3822,5.226953341295482,7.590359528798093,3.0,-1.0
K5Sb4,mp-685149,2,-2.8311915266666663,2.980171640006947,-0.3791915605555553,380.30367268794487,0.0,6.5551639999999995,8.476468930621701,3.0,-1.0
Li5SiP3,mp-685991,9,-4.0587796422222215,1.6789996040714616,-0.5910256491534389,307.99948154371793,1.2765,7.0552100258354455,8.61638904160049,3.0,-1.0
TiH,mp-690760,131,-6.0051504575,4.064387354244768,-0.4375361184766673,39.936521878491895,0.0,2.946499,4.599998,3.0,-1.0
Zr(TiH2)2,mp-690799,227,-5.886663889285713,4.68276103393718,-0.5584308451638093,135.45254840130394,0.1416000000000004,5.7645763107519015,5.7645763107519015,3.0,-1.0
YMgZn,mp-6908,189,-3.403394672222221,4.310719395568217,-0.29456308111111124,206.41930854986802,0.0,4.222011,7.513636302425344,3.0,-1.0
CaGa,mp-6914,63,-2.9927886575,3.4784157569680985,-0.47594096625,104.83442048955669,0.0,4.430532,6.135233425284567,3.0,-1.0
Sr(AlSi)2,mp-6931,164,-4.3018050799999985,2.8774248527923105,-0.295552889333333,114.12230990198314,0.0,4.2063303146265145,7.447889,3.0,-1.0
Ca(MnP)2,mp-6953,164,-6.915090311999999,4.160923702312904,-0.6839734032906399,84.56557569825215,0.0,3.794554727433774,6.7817440000000015,3.0,-1.0
Rb2SiAs2,mp-6960,72,-3.781048345,3.446573268896952,-0.44012454999999945,336.1616039443511,1.0756,8.557619691717376,8.557619691717376,3.0,-1.0
CoCl2,mp-696114,164,-4.174261073333334,3.2227597384718365,-0.9689211571733338,66.90013316836016,0.09860000000000002,3.528326044311806,6.205245,2.0,1.0
PH3,mp-696588,1,-3.683579978125,0.5707185863796979,0.09954398326714298,395.6718034297767,0.0,7.318538,7.829572022578563,0.0,1.0
B4C,mp-696746,166,-7.218254668666666,2.4732716515211286,-0.02938511199999899,111.2929765400004,1.6401000000000003,5.184466248996516,5.1844664959840365,3.0,-1.0
Li3H4Rh,mp-697047,63,-3.74141933,2.8195937849443515,-0.4851664405599996,150.4833100581972,0.6897,4.886787655818494,8.846497,3.0,-1.0
Ca4(H4Rh)3,mp-697126,229,-4.303106548947368,4.108216896652351,-0.6719400717599993,194.46997387389183,0.0,6.3215680233817775,6.3215680233817775,3.0,-1.0
Mg3In,mp-697180,166,-1.96541547125,3.4247028086643256,-0.07728450125000008,364.1051478117592,0.0,11.176922935074975,11.176923405813653,3.0,-1.0
Mg2NiH4,mp-697331,15,-3.4613112371428567,2.6851586704899018,-0.3270764620685708,275.4047791632832,1.6393,6.500556316212482,7.882683366390473,3.0,-1.0
K2SiAs2,mp-6984,72,-3.8463754310000002,2.7787028832243807,-0.4535056861999998,306.1184188941596,1.1419,8.248916278539625,8.248916278539625,3.0,-1.0
Ti,mp-6985,225,-7.8335295,4.5826421717129815,0.06196251666666619,17.344802522783674,0.0,2.9055484329430823,2.9055484329430823,3.0,-1.0
Rb,mp-70,229,-0.9713216,1.578645412106472,0.009212472500000013,89.90151920625445,0.0,4.887982478922362,4.887982478922362,3.0,-1.0
Mg3Al9FeSi5,mp-7062,189,-4.234022083888889,2.834435665315912,-0.1169334394444448,299.96498445700576,0.0,6.634479808695178,7.86912,3.0,-1.0
Sr3(AlSi)2,mp-7068,71,-3.7444492314285713,3.159108429272101,-0.4001315942857139,196.05887251667636,0.0,10.1606705837358,10.1606705837358,3.0,-1.0
Li5(NiN)3,mp-7080,189,-5.088745557272726,3.2791827226780565,-0.4757963812551509,128.01759230748038,0.0,3.472375,6.524635044084,3.0,-1.0
SrCaSi,mp-7084,62,-3.4885591133333334,2.8316091266024315,-0.4484273955555551,365.4241473533735,0.4224999999999999,4.933223,9.144428,3.0,-1.0
RbFeSe2,mp-7086,15,-4.771324345,4.126111775262243,-0.6607343680468754,240.85036056810355,0.0,5.636605760256077,7.177519058986678,3.0,-1.0
KMgSb,mp-7089,129,-2.865772256666667,3.134764931461824,-0.5858788443333337,196.1683890646269,1.2674,4.845267,8.355907,3.0,-1.0
NaMgSb,mp-7090,129,-2.859608325,3.3511979688685027,-0.5116304894444443,167.53534192387468,1.0759999999999998,4.658766,7.719064,3.0,-1.0
TiSi,mp-7092,62,-7.4292482675,4.224308740491082,-0.7688452491666666,119.42507160712368,0.0,3.6417349999999997,6.544556,3.0,-1.0
KCrP2S7,mp-7147,5,-5.146334419090909,2.2761456109175286,-0.9735210365470782,275.39907236894413,1.2816999999999998,6.519692740095196,6.583162080138236,3.0,-1.0
Ti,mp-72,191,-7.895492016666666,4.6468366299616415,0.0,51.31557003001308,0.0,2.8286830000000003,4.576855010294515,3.0,-1.0
P,mp-7245,74,-5.319789535,3.1990031202063465,0.09349632642857132,32.15573096237113,0.0,3.5713393517088234,3.5713393517088234,3.0,-1.0
BaSi2,mp-7275,212,-4.603322555,4.139450158250274,-0.3467895983333336,310.4866356886232,0.015399999999999638,6.771439,6.771439,3.0,-1.0