pretty_formula,task_id,spacegroup.number,final_energy_per_atom,density,formation_energy_per_atom,volume,band_gap,min_abc,max_abc,Dimension,Dim
Mg16ZrAl12,mp-1185735,160,-2.725490189310345,2.3054017076749425,0.0020646862068963608,579.0219685594387,0.0,9.210278261361054,9.210278621623235,3.0,-1.0
Mg16ZrAl12,mp-1185736,8,-2.71810127,2.2925250941598185,0.00945360551724136,582.2742086875403,0.0,8.95854908274381,9.144298879018882,3.0,-1.0
Mg17Al11Ga,mp-1185740,8,-2.4458934720689656,2.2204266699167903,0.01735447560344812,583.0998633101568,0.0,9.109975574161162,9.116800516223767,3.0,-1.0
Mg17Al11In,mp-1185741,8,-2.425253045862069,2.2934243849664773,0.028463461379310464,597.1910414421856,0.0,9.160880945581162,9.202190532050562,3.0,-1.0
Mg17Al11Pb,mp-1185742,8,-2.4467114262068965,2.5138678242331896,0.04014174793103501,605.8458612247222,0.0,9.215044392852047,9.235546188484417,3.0,-1.0
Mg17Al11Rh,mp-1185744,8,-2.6451791144827586,2.3692547251984664,-0.03240660241379272,569.7282402520437,0.0,8.927964538882309,9.090453489700062,3.0,-1.0
Mg17Al11Sn,mp-1185747,8,-2.472081178965517,2.3027560139793235,0.02501078086206954,597.577557770129,0.0,9.160205509162171,9.19664141575135,3.0,-1.0
Mg2Ag,mp-1185748,63,-2.1607964916666664,4.371189758145535,-0.14975779055555538,118.88670066864529,0.0,4.869587999999999,7.623095609536192,3.0,-1.0
Mg17Al11Si,mp-1185751,8,-2.514726542413793,2.107391170951458,0.031184112758620982,581.5672995250392,0.0,9.07928668336285,9.118220343937406,3.0,-1.0
Mg2Ag,mp-1185754,63,-2.1731395033333336,4.351268737924871,-0.16210080222222226,119.43098890056856,0.0,4.836937,5.625502111621504,2.0,1.0
Mg17Al11Tl,mp-1185759,8,-2.4018740644827585,2.530244226278275,0.03839310655172458,600.0761352678203,0.0,9.177863465249198,9.204619497392438,3.0,-1.0
Mg2Pd,mp-1185771,139,-3.3185663966666668,4.744328789210988,-0.5250857600000002,54.26128393133789,0.0,5.557179366170575,5.557179366170575,2.0,1.0
Mg2Sc,mp-1185774,63,-3.2117470066666667,2.219185957713734,-0.034070605000000136,140.02418466825915,0.0,5.178714,8.45343521038193,3.0,-1.0
Mg2Sc,mp-1185777,12,-3.1978257016666665,2.195446372863481,-0.020149299999999933,141.53828041393845,0.0,6.178552716457957,7.598984013366853,3.0,-1.0
Mg2Sc,mp-1185779,12,-3.1869139033333336,2.215242605750484,-0.009237501666666741,140.2734416309416,0.0,6.247119876685896,7.497582740624607,3.0,-1.0
Mg17Al11Zn,mp-1185781,8,-2.3784387093103447,2.2182114448000907,0.02383158689655206,580.4527450273943,0.0,9.097135225482416,9.103384043972056,3.0,-1.0
Mg3Pb,mp-1185787,194,-2.16579127875,4.80220388199843,-0.03741947374999999,193.72018017989305,0.0,5.27305,6.5131510554179535,3.0,-1.0
Mg3Sc,mp-1185790,221,-2.82247212,2.138723654407688,-0.039144806249999935,91.51685108470792,0.0,4.5064410000000015,4.5064410000000015,3.0,-1.0
Mg2Ni,mp-1185791,140,-3.1655660783333333,3.4801021145716824,-0.17200048499999987,102.4001490835198,0.0,5.133253825935651,5.133253825935651,3.0,-1.0
Mg2In,mp-1185798,63,-2.0038251183333333,3.8918520888312393,-0.0197438416666665,139.45986249328527,0.0,5.016953,8.10236356574512,3.0,-1.0
Mg5Ag,mp-1185801,189,-1.8786815983333327,3.0290047215141844,-0.07302222277777777,125.7562814302808,0.0,4.992534,5.393107038102712,3.0,-1.0
Mg5Ag,mp-1185802,38,-1.8912777866666663,2.9834889483633416,-0.08561841111111097,127.67480517108906,0.0,4.995595,8.212049898509509,3.0,-1.0
Mg5Cu,mp-1185803,189,-1.9972910366666667,2.575169601086224,0.01947678333333336,119.33879052668999,0.0,4.882365,5.312639825789153,3.0,-1.0
Mg5Hg,mp-1185805,38,-1.46953404,4.017662856355864,-0.08535393750000016,133.13325696099216,0.0,5.047676999999998,8.24456127354567,3.0,-1.0
Mg5Ag,mp-1185807,155,-1.876378715,2.9976721053415862,-0.07071933944444453,127.07072582542564,0.0,5.902383159299045,5.90238344335981,3.0,-1.0
Mg5Ag,mp-1185809,8,-1.865291125,2.9830559833510533,-0.05963174944444441,127.69333607493346,0.0,5.86761326602427,7.266687686244402,3.0,-1.0
Mg5Hg,mp-1185810,8,-1.4458044283333331,3.9590685897419857,-0.06162432583333347,135.10363089534593,0.0,6.034677344357362,7.324432756161394,3.0,-1.0
Mg5Au,mp-1185813,155,-2.08270316,4.283151667853975,-0.20348952833333347,123.4762935612347,0.0,5.83893300433992,5.83893346521383,3.0,-1.0
Mg5Hg,mp-1185814,189,-1.457564055,4.048474997231734,-0.07338395250000011,132.12000612665318,0.0,5.235032,5.398328704978606,3.0,-1.0
Mg5Pd,mp-1185816,189,-2.43843343,3.1787417011717056,-0.2415530866666664,119.07591528956726,0.0,4.816268,5.343075523382111,3.0,-1.0
Mg5In,mp-1185817,189,-1.82276751,2.8480502345137,-0.030586846666666705,137.7984067350747,0.0,5.193354,5.535193464038364,3.0,-1.0
Mg5Pb,mp-1185818,189,-1.9577747683333333,3.7470430691007537,-0.005433548333333428,145.67772363478198,0.0,5.3383970000000005,5.613397766560464,3.0,-1.0
Mg5Sc,mp-1185819,189,-2.372861865,1.997990072538425,0.016116360833333527,138.36307898565906,0.0,5.149135,5.570288074135573,3.0,-1.0
Mg5Pb,mp-1185825,38,-1.9373460316666664,3.759337264671352,0.014995188333333097,145.20131242223223,0.0,5.225567,8.484253377901734,3.0,-1.0
Mg5In,mp-1185827,8,-1.8211966766666663,2.8291801108025845,-0.02901601333333333,138.7174973834067,0.0,6.137508264023517,7.521031105302317,3.0,-1.0
Mg5Sc,mp-1185829,38,-2.400209921666667,1.9846195603844528,-0.011231695833333314,139.29524012433106,0.0,5.1906930000000004,8.44828234985929,3.0,-1.0
Mg5In,mp-1185830,38,-1.82264795,2.8234068470714866,-0.0304672866666668,139.00114502609162,0.0,5.1788099999999995,8.493799200791598,3.0,-1.0
Mg5Pb,mp-1185831,8,-1.94578303,3.749738415473432,0.006558189999999797,145.5730091506039,0.0,6.130554255399915,7.668561862470955,2.0,1.0
Mg5Pb,mp-1185832,155,-1.9671504533333333,3.765913550938444,-0.014809233333333616,144.94775232746903,0.0,6.19490763185457,6.194908026433728,3.0,-1.0
Mg5In,mp-1185835,155,-1.8251667683333328,2.845140363464409,-0.03298610499999999,137.93934023682593,0.0,6.21275415888976,6.212754197768973,3.0,-1.0
Mg5Sc,mp-1185837,155,-2.3652092266666664,1.9804084681275176,0.023768999166666898,139.591434124991,0.0,6.200000057385807,6.2000003376445045,3.0,-1.0
Mg5Pt,mp-1185838,12,-2.65030204,4.340888828967049,-0.30491738,121.11381655960629,0.0,5.522188763348188,7.369356560503774,3.0,-1.0
MgSc,mp-1185947,51,-3.98940618,2.4598446954581616,-0.02303160249999969,93.51033451558882,0.0,3.362799,5.348914,3.0,-1.0
MgS3,mp-1185949,25,-3.893182735,2.6382202053467743,-0.8883703223437505,75.84467631616783,0.0,3.654946,5.040817,3.0,-1.0
MgSc2,mp-1185956,12,-4.770797123333334,2.6134415085265275,-0.015724369999999748,145.14309786248756,0.0,6.187615721266633,7.686940242895933,3.0,-1.0
MgS2,mp-1185959,166,-4.120817813333333,2.35636906943063,-1.272064552083333,62.320361551110636,1.1336000000000004,5.117080035480392,5.11708069042887,3.0,-1.0
MgScZn2,mp-1185961,225,-2.9281390375,4.6236316608873205,-0.3150799437499998,71.85668629041778,0.0,4.666529989237183,4.666529989237183,3.0,-1.0
MgSc2Ga,mp-1185965,225,-4.6702093725,3.734140617439512,-0.34688093187499897,81.79640108597917,0.0,4.872476253471329,4.872476253471329,3.0,-1.0
MgSc3,mp-1185966,187,-5.1247154675,2.70069927068061,0.024706373749999955,97.86818892982413,0.0,3.2615843459105878,10.62316,3.0,-1.0
MgSc3,mp-1185968,44,-5.1286963275,2.73379106405945,0.02072551374999954,96.68352126117723,0.0,6.189892962574878,6.189892962574878,3.0,-1.0
Na3Ag,mp-1186017,225,-1.69241164,2.674140391737256,0.0017165233333336085,109.80933952302212,0.0,5.375077854043791,5.375077854043791,3.0,-1.0
Na3Au,mp-1186018,225,-1.994698135,4.4385226282112376,-0.1902385874999999,99.49186918560636,0.0,5.201167769638084,5.201167769638084,3.0,-1.0
Na3Cd,mp-1186024,225,-1.2559209825,2.4720041479917594,-0.03920937999999974,121.84004113623287,0.0,5.564613584100157,5.564613584100157,3.0,-1.0
Na3Ga,mp-1186028,221,-1.713101415,2.04144752990081,0.029911623125000064,112.81406552556533,0.0,4.831935,4.831935,3.0,-1.0
Na3Au,mp-1186030,194,-1.98714398875,4.276425403306362,-0.18268444124999994,206.5261853331621,0.0,5.36493,6.667149765444451,3.0,-1.0
Na3Cd,mp-1186031,139,-1.2470760325,2.4747716002241686,-0.030364429999999887,121.70379159554443,0.0,6.212693332160617,6.212693332160617,3.0,-1.0
Na3Ca,mp-1186032,221,-1.404594745,1.1794420798117582,0.08279438750000012,153.52794162200559,0.0,5.3546260000000006,5.3546260000000006,3.0,-1.0
Na3Ag,mp-1186033,194,-1.68991337625,2.6336967548406918,0.00421478708333356,222.99119264113304,0.0,5.461941,6.866019356636637,3.0,-1.0
Na3Ag,mp-1186034,139,-1.690119135,2.7064468035090083,0.004009028333333609,108.49856344036816,0.0,5.5990673676664215,5.5990673676664215,3.0,-1.0
Na,mp-1186040,223,-1.30462538625,0.9965745029834148,0.010026830416666854,306.4530341266085,0.0,6.741988,6.741988,3.0,-1.0
Na3Ca,mp-1186042,194,-1.42363727875,1.1944542721869935,0.06375185375000014,303.1967300754541,0.0,5.999172,7.639259804179263,3.0,-1.0
Na3Ga,mp-1186045,225,-1.7144545525,2.0566749024810043,0.028558485625000074,111.97880380968992,0.0,5.410245102699323,5.410245102699323,3.0,-1.0
Na3Mg,mp-1186046,221,-1.296665555,1.1967496449087778,0.08939362000000027,129.42191605179113,0.0,5.0582769999999995,5.0582769999999995,3.0,-1.0
Na3In,mp-1186047,225,-1.72793756,2.5636674823348184,-0.054027464999999886,119.0427411965366,0.0,5.521697859336383,5.521697859336383,3.0,-1.0
Na3Hg,mp-1186050,139,-1.20258191,3.8147849318061056,-0.1406726562499998,117.33656534656944,0.0,6.092450569651756,6.092450569651756,3.0,-1.0
Na3Ga,mp-1186054,194,-1.7162967275,1.9872902295012436,0.026716310624999903,231.77691107859337,0.0,5.673726,6.868083810058596,3.0,-1.0
Na,mp-1186055,213,-1.297696866,1.012255142103122,0.016955350666666646,754.2645808100322,0.0,9.102791,9.102791,3.0,-1.0
Na3Mg,mp-1186056,194,-1.3071161875,1.187835880131472,0.07894298750000027,260.78624946276517,0.0,5.712296,7.2605860672367895,3.0,-1.0
Na3Hg,mp-1186058,194,-1.21087848,3.7668809779684818,-0.14896922624999998,237.6575018175266,0.0,5.47179,7.081833870629344,3.0,-1.0
Na(Mg4Al3)4,mp-1186061,217,-2.4445979958620687,2.0644593968506366,0.03354141712643684,591.7155024563845,0.0,9.160340407259714,9.160340407259714,3.0,-1.0
Na3Pd,mp-1186067,139,-2.3033626,3.070879058598734,-0.022402984999999376,94.83955309693931,0.0,5.3799078682299015,5.3799078682299015,3.0,-1.0
Na3Pd,mp-1186074,225,-2.30400662,3.0804390345070667,-0.023047004999999558,94.54522367421507,0.0,5.1134992566930135,5.1134992566930135,3.0,-1.0
Na3Sn,mp-1186080,225,-2.124442315,2.7606515100838043,-0.13606018874999992,112.88959201203451,0.0,5.424873727788509,5.424873727788509,3.0,-1.0
Na3Tl,mp-1186088,194,-1.6575906025,3.658636638216157,-0.08118819499999974,248.13214820732998,0.0,5.852456,6.996923192562071,3.0,-1.0
Na3Zn,mp-1186091,139,-1.230601455,1.915468027675869,0.0703236100000002,116.49394646522406,0.0,6.0641325094238345,6.0641325094238345,3.0,-1.0
Na3Zn,mp-1186094,221,-1.2293803825,1.9418403814063168,0.07154468250000012,114.91182900950821,0.0,4.861701,4.861701,3.0,-1.0
Na3Zn,mp-1186099,194,-1.23977060625,1.9062216903232416,0.06115445875000014,234.1180262554694,0.0,5.445583,7.0457934857264295,3.0,-1.0
NaCa2Rh,mp-1186124,225,-3.3027779225,3.4546670075884487,-0.13023796083333306,99.04172576123354,0.0,5.193311813299101,5.193311813299101,3.0,-1.0
NaCa3,mp-1186129,225,-1.747445705,1.4573638882828337,0.08541725916666665,163.19099578854738,0.0,6.133905253633447,6.133905253633447,3.0,-1.0
NaCa3,mp-1186132,139,-1.7636154975,1.441184940080722,0.0692474666666667,165.02300124078727,0.0,6.841620836410622,6.841620836410622,3.0,-1.0
NaLi2Sn,mp-1186135,225,-2.5803636225,3.112432215004428,-0.2948461712500001,83.0056971826518,0.0,4.896370805821183,4.896370805821183,3.0,-1.0
NaLi5N2,mp-1186148,6,-3.66974934375,1.5151595248686245,-0.3242229780949999,93.93186729202415,0.0,3.743921,6.558252548737736,3.0,-1.0
NaLi3,mp-1186151,139,-1.70990601,0.7435160041161369,0.05044919416666649,97.84969604233076,0.0,5.709867871213134,5.709867871213134,3.0,-1.0
NaSr3,mp-1186184,194,-1.5559821125,2.32488919866416,0.039791881666666695,408.33318795645874,0.0,6.800827000000001,8.326474859139967,3.0,-1.0
Rb3Na,mp-1186861,194,-1.0263854,1.584446333115214,0.0376782085416667,585.6219460818949,0.0,7.532542999999999,9.474854639864086,3.0,-1.0
RbNa2Bi,mp-1186887,225,-2.2227833425,4.1905867762403535,-0.3478151385416668,134.89603948503182,0.0,5.756670856938236,5.756670856938236,3.0,-1.0
Sc3Ga,mp-1186968,194,-5.84067343,4.007682379499581,-0.3342977256249995,169.53983755312836,0.0,5.034185,6.235998271976187,3.0,-1.0
Sc3Sn,mp-1186970,221,-6.1867287825,4.557960260436923,-0.4349839900000001,92.38249413952043,0.0,4.5206050000000015,4.5206050000000015,3.0,-1.0
Sc3Nb,mp-1186972,139,-7.174942535,4.269832546431913,0.09973555375000044,88.58141715518705,0.0,5.457946190619418,5.457946190619418,3.0,-1.0
Sc3Sn,mp-1186976,194,-6.202652465,4.588300641799247,-0.4509076724999996,183.543219993911,0.0,5.175222,6.399401392891135,3.0,-1.0
Sr2CdGa,mp-1187072,225,-2.1807625225,4.6822400290501465,-0.34827558020833305,126.74136411317085,0.0,5.638251684292924,5.638251684292924,3.0,-1.0
Sr,mp-1187073,166,-1.6894812533333334,2.676562283628263,0.0,163.07832689579146,0.0,10.728237028784648,10.728237044497526,3.0,-1.0
Sr2LiGa,mp-1187085,225,-2.263871705,3.2878100569173347,-0.18487648604166693,127.22645949474432,0.0,5.64543588918978,5.64543588918978,3.0,-1.0
Sr2LiCd,mp-1187087,225,-1.71821289,3.5199856403200735,-0.16551910666666658,138.97259099708876,0.0,5.814085099143457,5.814085099143457,3.0,-1.0
Sr2LiRh,mp-1187090,225,-3.25400577,4.330363621117531,-0.09095745916666688,109.32044327679155,0.0,5.3670889616299435,5.3670889616299435,3.0,-1.0
Sr2MgTl,mp-1187092,225,-2.0883553475,4.803645874233384,-0.25313146333333325,139.63117594765828,0.0,5.823254859881886,5.823254859881886,3.0,-1.0
Sr2Mg,mp-1187100,139,-1.6947844966666663,2.588458229916122,-0.0350369777777777,128.01144102504384,0.0,7.750048130921058,7.750048130921058,2.0,1.0
Sr3Ca,mp-1187105,221,-1.7580395275,2.4753955306475275,0.010471382500000015,203.21616385325,0.0,5.879216,5.879216,3.0,-1.0
Sr(Mg4Al3)4,mp-1187106,217,-2.4810068368965514,2.2074844054609644,0.01005771528735634,601.9945821654456,0.0,9.213079622299377,9.213079622299377,3.0,-1.0
Sr3Ca,mp-1187107,225,-1.74017665,2.5374670177061702,0.028334260000000056,198.2450925460348,0.0,6.5449421828965,6.5449421828965,3.0,-1.0
Sr3Ca,mp-1187110,139,-1.75625882,2.441702129961191,0.012252090000000049,206.02037307706573,0.0,7.221504502898755,7.221504502898755,3.0,-1.0
Sr2ZnGa,mp-1187111,225,-2.2062199275,4.3497051670110665,-0.28951952270833337,118.48730233201664,0.0,5.51309661245003,5.51309661245003,3.0,-1.0
Sr3Ca,mp-1187116,194,-1.73719374375,2.4364432599942063,0.03131716625000003,412.93010349756065,0.0,6.84737,8.344706534240313,3.0,-1.0
Sr2MgIn,mp-1187121,225,-2.1956980225,3.747971044070829,-0.26296645083333314,139.27856871236565,0.0,5.818348953034014,5.818348953034014,3.0,-1.0
Sr3Li,mp-1187126,194,-1.67234453625,2.382773624561609,0.07199712041666673,376.04503935213233,0.0,6.596997,8.112999912615308,3.0,-1.0
SrCa3,mp-1187151,221,-1.9076990075,1.9385244926853236,0.01887121583333351,178.04762769386582,0.0,5.625728,5.625728,3.0,-1.0
SrCa3,mp-1187155,225,-1.8914697625,1.9700106509650048,0.0351004608333334,175.20193963418708,0.0,6.280843456977572,6.280843456977572,3.0,-1.0
SrCa3,mp-1187169,139,-1.907840845,1.9181046244210644,0.018729378333333543,179.9430973444693,0.0,6.889044102985697,6.889044102985697,3.0,-1.0
SrCa3,mp-1187176,194,-1.89678485,1.9060039946569407,0.02978537333333353,362.1710008128282,0.0,6.57879,7.972940361263277,3.0,-1.0
SrLi2In,mp-1187184,225,-2.2934683525,3.5455202393276144,-0.22871567333333376,101.31314634803313,0.0,5.232713217360378,5.232713217360378,3.0,-1.0
SrMg2,mp-1187198,227,-1.7224303966666668,2.399508735173037,-0.0924166122222223,188.55129279335983,0.0,6.43647624530317,6.43647624530317,3.0,-1.0
Sr2ZnIn,mp-1187231,225,-2.1561076175,4.575929839220336,-0.3085101558333334,128.99385723266985,0.0,5.671457418737445,5.671457418737445,3.0,-1.0
TeS3,mp-1187407,194,-3.32976818875,4.296713420439302,0.06079944390624981,172.97888131983075,0.0,3.719464,7.328094376443647,1.0,1.0
Ti3Be,mp-1187475,139,-6.8570633025,4.25945632754594,-0.0005910737500007812,59.495891330136566,0.0,4.849435682271289,4.849435682271289,3.0,-1.0
Ti3Si,mp-1187525,194,-7.7389168775,4.5701628172419575,-0.4609693600000009,124.76235611661241,0.0,4.528928,5.6399952957112465,3.0,-1.0
Y,mp-1187717,194,-6.45953823,4.5649216634867065,0.006932883333333528,129.36181433748234,0.0,3.5890957292621777,11.595924,3.0,-1.0
Y,mp-1187739,166,-6.466471113333332,4.547349702821745,0.0,97.39627265701851,0.0,8.914237682271715,8.914237719658422,3.0,-1.0
YMg2,mp-1187860,227,-3.311101968333333,2.927700664494002,-0.08875823055555543,155.9930248136701,0.0,6.042361795527474,6.042361795527474,3.0,-1.0
ScCrC2,mp-1188534,59,-8.95178367375,4.83818124001315,-0.3420141799999996,166.0798276712356,0.0,3.24632,9.037252,3.0,-1.0
FeCu2SiS4,mp-1188558,31,-5.2438659375,3.8929457028967898,-0.7456547240624998,289.4424370956356,0.02069999999999972,6.130129,7.392817,3.0,-1.0
Y5Si3C,mp-1188646,193,-7.05290787,4.49099128542041,-0.6267880559259267,399.9177799426653,0.0,6.466666,8.450449676617275,3.0,-1.0
IN4,mp-1188721,33,-6.8731328560000025,2.3759119116982426,-0.20635258290399888,511.407041384172,0.0,5.977135,9.512661,1.0,1.0
Sc3P,mp-1188800,62,-6.910362310625,3.3414015703064863,-0.8076890165178563,329.6655975021957,0.0,5.766645,8.409184,3.0,-1.0
MgCu2SiSe4,mp-1188827,31,-4.18126369125,4.566341155425455,-0.530307026171875,360.24569072712836,0.8051000000000004,6.562386,8.0115,3.0,-1.0
MgCu2GeS4,mp-1189056,31,-4.467212790625,3.7184668511631735,-0.9280027015625004,314.64738289275607,0.7996999999999996,6.272325,7.663112,3.0,-1.0
N2,mp-1189505,53,-6.15903166625,0.9555613117216992,8.881784197001252e-16,389.4451942971949,0.2737000000000003,4.239789,9.709648,0.0,1.0
YSi3,mp-1189560,139,-6.03836667875,4.051025604452391,-0.35276338541666696,283.9210364143151,0.0,7.456925176376924,7.456925176376924,3.0,-1.0
Ca5Ga3,mp-1189870,140,-2.768277188125,2.8848799717897724,-0.3792414496874996,471.4849326335778,0.0,9.336687095826976,9.336687095826976,3.0,-1.0
Ca3(GaP2)2,mp-1189986,15,-4.6219940672222215,3.1341192274991845,-0.8746458349206351,406.45636361779793,1.0879000000000003,6.481486307965249,8.038370775187031,3.0,-1.0
Al6Ge5,mp-1190320,167,-4.096867818636364,3.8716353089964533,0.04754984090909111,450.4201005175686,0.4336000000000002,7.7208818595863775,7.720881864945869,3.0,-1.0
FePH12(CBr)4,mp-1190395,216,-4.806969604545454,1.8719884563710272,-0.43356243918233744,413.87137240018944,1.3047999999999995,8.364887959460187,8.364887959460187,0.0,1.0
Al3Fe2Si,mp-1190708,227,-6.0012933575,4.725578344602409,-0.4009521458333332,310.23874611158334,0.0,7.598659980298632,7.598659980298632,3.0,-1.0
Ca8Al3,mp-1190736,2,-2.634704437727273,1.895135766452953,-0.15456566227272714,703.7177876753876,0.0,9.438267,9.589236352433074,3.0,-1.0
Cr2(CN2)3,mp-1190798,167,-8.900234174545455,2.993740352154165,-0.2910277958436351,248.56387790642682,0.0,9.91780832047101,9.917808814515684,3.0,-1.0
Mg6VH16,mp-1191096,225,-3.238984985652174,1.706035560970674,-0.17283833556173905,207.2209694685137,0.0,6.642265531831892,6.642265531831892,3.0,-1.0
Mg7NbH16,mp-1191131,225,-3.27074592125,2.25048293261801,-0.2232854224133328,205.98692878409042,0.0,6.629053948732202,6.629053948732202,3.0,-1.0
Li3As,mp-1191653,165,-3.2648868029166667,2.5490627530303893,-0.6684150516666666,374.22613121700965,0.3899999999999999,7.5580519695819115,7.564561,3.0,-1.0
BaReH9,mp-1191721,11,-4.3405209000000005,4.745218569662791,-0.3840547211436364,232.7835280867629,0.0,5.197093,9.516464,3.0,-1.0
Mg3TiNi2,mp-1191806,227,-4.301390862083333,4.026106149717685,-0.2586232743055555,392.92416259116686,0.0,8.221314170180946,8.221314170180946,3.0,-1.0
MgTi7H16,mp-1191885,225,-5.058687205833333,3.552870184161288,-0.5293325913022221,175.5015281021658,0.0,6.284421417290377,6.284421417290377,3.0,-1.0
Mg7VH16,mp-1192183,225,-3.201446022083333,1.966365273266064,-0.19637714699666672,200.31158516727945,0.0,6.567604955233527,6.567604955233527,3.0,-1.0