pretty_formula,task_id,spacegroup.number,final_energy_per_atom,density,formation_energy_per_atom,volume,band_gap,min_abc,max_abc,Dimension,Dim
Hg3As8(S4Br3)2,mp-555833,14,-3.501338603,3.7835508426497038,-0.4697599425999999,1700.311924204258,2.1064,10.200968,14.656154700574909,0.0,1.0
K2OsCBr5O,mp-556047,62,-4.5570854185,3.813790193942161,-1.0465642972249996,1212.0890035825005,0.5216999999999999,7.517287,14.832684,3.0,-1.0
Cs3Ta2S11,mp-556091,14,-5.3772664196875,3.663557670921618,-1.3394757376980078,2018.500414718326,1.6882999999999997,8.344145,20.082214319331868,3.0,-1.0
K4Pt2(SO4)5,mp-556254,2,-5.83543273548387,3.4933734144517663,-2.001185318794356,1952.4562917087653,1.7050999999999998,9.966285000000001,15.171216400003855,3.0,-1.0
FeS3(NCl2)2,mp-556297,14,-4.659384037125,2.024262560596812,-0.6784519608425008,2112.2559149807453,1.2118,11.835256,14.412562996508287,0.0,1.0
Hg3AsO4,mp-556339,14,-3.88617199359375,7.720643429696772,-1.0670693217187504,1274.4464774299327,1.7517,8.825655000000003,14.006714428378876,3.0,-1.0
Cs3ZnI4NO3,mp-556385,62,-3.894874931875,3.821280963124156,-1.3339191168685922,1796.8625504588372,3.1474,10.367792999999999,14.63894,3.0,-1.0
Rb5Tl3O,mp-556433,63,-2.2636369183333334,4.833344908033512,-0.4599374993055558,1451.8641884132282,0.02700000000000013,9.438544,17.85418126056328,3.0,-1.0
Rb4Nb2S10O,mp-556467,29,-5.184801665441177,2.9473208966516897,-1.4730186944117651,1947.8833302151402,1.5716,7.965003999999999,18.478049,3.0,-1.0
K3Cu2(BiS2)5,mp-556522,58,-4.20767927,5.113814080367294,-0.9221952500125,1045.5469816755713,0.5755999999999997,4.057851,17.887245999999994,3.0,-1.0
In4GeS4,mp-556528,205,-4.021523128611111,4.564429361954526,-0.7413317683333334,1921.3642008578006,1.0698000000000003,12.431873,12.431873,3.0,-1.0
Cs2MnBi2S5,mp-556529,62,-4.68574162475,4.809265409329641,-1.0759887078642243,1241.6718110148206,0.8712999999999997,4.190428,18.472093,3.0,-1.0
K4VP2S9,mp-556552,33,-4.74633789109375,2.0931385835586442,-1.2707764921729918,1770.2799550954614,1.2594,6.9052240000000005,19.592518,3.0,-1.0
Tl2OsCBr2OF3,mp-556622,14,-5.10238550475,5.739225251274267,-1.4065264987319992,1953.126783952469,0.7049,11.524739,17.940220447624522,0.0,1.0
K4GeS4,mp-556627,218,-3.894386086666666,2.197855826016809,-1.3436546299444443,2159.5568182678044,2.7133,12.925724,12.925724,3.0,-1.0
Te3W2Se4(Cl4O)2,mp-556693,9,-4.052814958684212,4.239104237868282,-0.9396602012081572,1082.6674120004943,1.0027,8.49063064792351,15.472138378097483,2.0,1.0
BaCu6(GeS4)2,mp-556714,57,-4.545192114264705,4.677831406462984,-0.8072988498529412,1306.9005748297984,0.7574999999999994,6.1377690000000005,17.656067999999994,3.0,-1.0
Rb2Bi4O7,mp-556735,15,-5.3349392295192315,6.772657195122608,-1.7010266398076923,2194.588106565433,2.5426,12.494831486438422,15.812168682838195,3.0,-1.0
TlInSiS4,mp-556744,62,-4.4780138051785725,3.825460111293593,-0.9879266341071424,1651.386272862407,2.4357,7.723039,16.853479999999998,3.0,-1.0
Rb2SbAuS4,mp-556894,57,-3.8893661134375,3.8447128051445607,-0.9823773143750004,1067.5272289464301,1.5453,7.0308509999999975,20.515612,3.0,-1.0
Sn(S4I)4,mp-557101,43,-3.722557198333333,2.252209414038703,-0.5952495704761899,1680.096765581416,1.7979,13.037816939072124,16.438782512001914,0.0,1.0
Tl4Cu4(P2O7)3,mp-557258,54,-6.275417137928572,4.905388690727512,-2.061642034719388,2157.747326794202,0.2277999999999997,9.77019215,20.48049907,3.0,-1.0
Ag2INO3,mp-557396,19,-4.611392180714286,5.242348781475823,-0.6287360070661906,1025.3878743722612,1.4876999999999998,7.3479470000000005,17.579693,3.0,-1.0
NaNb2PS10,mp-557436,15,-5.5703466301785705,2.6450037858076225,-1.1660289996896265,1407.347324965797,1.6443000000000003,13.031002090488665,13.706063887569544,2.0,1.0
Ga2Pb2S5,mp-557672,61,-4.420295786527777,5.548515501302369,-0.9929141777083336,1709.87550879788,1.9189000000000005,11.214878,12.574549000000001,3.0,-1.0
K2RuI5NO,mp-557702,62,-3.97034120125,3.8986499365480607,-0.8390023732129996,1437.5793339058382,1.3980000000000001,7.953133999999999,15.334826000000001,3.0,-1.0
SbIrC2(OF3)2,mp-557748,118,-5.9855350509375,3.769950837894706,-1.9492329842408327,1705.4447317538645,2.4943,9.738983000000001,13.233113000000001,1.0,1.0
Ti(Ag4S3)2,mp-557833,33,-3.9711002375,5.871015591304139,-0.5448416211944448,1248.1050252280236,0.6599999999999997,7.572017,15.34961,3.0,-1.0
S,mp-557869,4,-4.135588018125,1.5833551030390092,0.0008618487499999125,1614.1476307367702,2.7065,11.599142,11.861385954283126,0.0,1.0
SbSe2S(NF3)2,mp-557904,14,-4.811173515208334,3.2529102642219283,-1.559335245184375,1853.0302516917263,1.555,10.183657,16.975796,0.0,1.0
SrCu(TeO3)2,mp-557970,213,-5.593741838166666,4.96913088396049,-1.8388135785833333,2014.4988979466816,0.0,12.629583,12.629583,3.0,-1.0
Nb4Te9I4O,mp-558408,15,-5.001004288333333,5.282800006903393,-0.6100795961805561,1284.7538059897124,0.25929999999999964,11.981974110295225,20.89001205382163,0.0,1.0
Ag2PS3,mp-558469,14,-4.090089077777779,4.314293549341161,-0.5071944996577389,1583.7793449917374,1.7782000000000004,6.600117,19.99040878445013,3.0,-1.0
K4Nb2S10O,mp-558475,29,-5.208247915441175,2.4994671921167018,-1.4659085033529409,1804.0098296248002,1.5316,7.682153,18.152515,3.0,-1.0
K4LiIO6,mp-558483,61,-4.4486661140625,3.277107138745373,-1.6696224405486106,1565.6697092217182,2.0860000000000003,10.135389,13.4823,3.0,-1.0
Ag4Mo2Se3O16,mp-558550,57,-5.4401131049,4.923147149080396,-1.2649974246479172,1505.9734552045547,1.6559,5.784979,16.161414999999998,3.0,-1.0
BaPt2S3,mp-558588,92,-5.3907018624999985,7.415292095988582,-1.3107425540625002,1675.9878322387506,1.3299999999999996,11.20913,13.339116,3.0,-1.0
Sb8Br2O11,mp-558592,2,-5.595489651547619,5.289826945296089,-1.6427190250595236,1644.7488810550894,2.6389,10.795889,14.274978773393713,2.0,1.0
Cr2(Hg2O3)3,mp-558700,19,-4.3367624826470585,7.351691250477079,-1.083046815073529,1311.4353557546206,1.8338,7.6512949999999975,20.824141,3.0,-1.0
Ag2Hg(SeO3)2,mp-558763,61,-4.418902929318182,6.406219939683736,-0.9248476439109846,1389.854689955981,1.8143,7.0570960000000005,17.260068,3.0,-1.0
Cs2As4Pd3O14,mp-558846,85,-5.70819560902174,4.349787065866467,-1.5600982022113956,1693.0675841651373,0.32799999999999985,6.17352,16.560396,3.0,-1.0
Hg3ClO,mp-558934,15,-1.8813959233333333,8.72046839214266,-0.5992844152353333,1492.6280547346093,1.1793,10.937787280762091,17.412772463752006,1.0,1.0
AgAsO3,mp-558950,29,-5.30313458975,5.3205196643791055,-1.257400426833333,1728.699514830734,0.4985,6.7555190000000005,20.006086,3.0,-1.0
K3Ta2S11,mp-558967,14,-5.385766374375,3.1942378629786057,-1.307663834585938,1729.8797489896374,1.7459000000000002,7.793143,25.12129010291987,3.0,-1.0
Rb3Nb6SBr17,mp-559037,15,-4.689926373703703,4.417862098842894,-1.1769569846527774,1657.0386932701676,0.5826,9.595868885999746,13.165550020110855,3.0,-1.0
SnP2(Cl5O)2,mp-559064,58,-3.9164521735,2.016784082624844,-1.525386554649524,1867.9938168045176,2.8617,8.291071,15.065079999999998,0.0,1.0
Tl2BiP2S7,mp-559093,15,-4.413730211875,4.51390215004013,-0.7678267901264881,1330.445859697199,2.1284,12.270575623652705,19.095217501900546,3.0,-1.0
K3Cu(NO3)5,mp-559099,14,-5.910818097604166,2.2443918788537074,-1.2909119942562484,1452.689578539265,0.9875,8.413177000000001,14.461844000000001,3.0,-1.0
K3Cr2(PS4)3,mp-559251,14,-5.067054935374999,2.06129391532769,-1.0394035469857137,2252.3668525323537,1.2898,9.969968,19.54456931162337,3.0,-1.0
Ba21Ge2O5,mp-559274,227,-3.5720086744642856,4.274550118900239,-1.044409728616071,2415.6250047728045,0.0,15.060804511207824,15.060804511207824,3.0,-1.0
Na3Cr2(PS4)3,mp-559281,14,-5.10365371375,2.187722222871149,-1.0453643349107142,1975.4811228940146,1.2934,9.857161,19.461319965636786,3.0,-1.0
MoS3(NCl4)2,mp-559303,14,-4.207027511607143,2.1899167890445965,-0.8355728816225003,1527.97358339775,0.4986999999999999,7.676201,16.692566,0.0,1.0
Cu3P4(SI)3,mp-559307,62,-4.1109497459615385,3.7295954844686894,-0.3461981381662096,1409.5034868083926,1.5138000000000005,7.1402990000000015,19.471753,3.0,-1.0
Tl3AsS3,mp-559356,61,-3.7694596791071433,6.299838303186612,-0.6033101154464282,1653.7632862315345,1.5714000000000006,5.818466,22.371387,2.0,1.0
Cu3P8(S2Cl)3,mp-559558,62,-4.602272521750001,2.4987805757914243,-0.5921025701050716,1959.53398833034,1.7894,6.3549190000000015,26.560462,3.0,-1.0
CuSb2BrO3,mp-559587,36,-5.1393392253571415,5.337650680290928,-1.3206060687499996,1082.5462093211604,0.7827999999999999,8.045086169696381,19.346854999999998,2.0,1.0
K2Cu(PS3)3,mp-559644,14,-4.526050729333334,2.148242782260948,-0.93826599932262,1617.8343042651254,1.929,6.9059740000000005,24.341225,3.0,-1.0
Cs2CdBi2S5,mp-559668,62,-3.86281312,4.972234044340265,-1.0769418741487071,1277.750319473954,1.7334,4.230187,18.769764000000002,3.0,-1.0
V2Cd4(TeO5)3,mp-559685,19,-5.613671287604166,5.20813347134442,-1.7965772875520831,1497.6581735784189,1.7825999999999995,5.4798550000000015,16.686797,3.0,-1.0
Hg3(NO4)2,mp-559722,61,-4.7353563100961535,6.316671199902746,-0.8291017546930769,1593.6507433254758,0.8528,7.1480440000000005,16.025796,2.0,1.0
SbSNCl5,mp-559738,122,-3.5966448103125,2.3045943450096016,-0.868680038038125,1989.2318258807595,1.7869,13.737695780903433,13.737695780903433,0.0,1.0
AgBO2,mp-559803,60,-6.394413927578125,5.293435268272393,-1.8935942496614568,1512.5554898647229,1.1604,8.640504,19.969765,3.0,-1.0
K2Ag6Sn3S10,mp-559880,60,-3.884263105238095,4.318155575478822,-0.7426084315357144,2156.832248243941,0.7928000000000002,6.443604,24.760954,3.0,-1.0
Nb(PS4)2,mp-559923,64,-5.349107681136363,2.078960022907812,-0.9207626176948054,1314.3156790794128,1.2763000000000002,10.821982,11.781805904020699,2.0,1.0
Rb8AlAu3O4,mp-559984,19,-3.71434293828125,4.816508364767265,-1.3147082567187498,1883.2459173834134,1.2244,10.61177,13.490245999999999,3.0,-1.0
ZrMo2Se8(Cl7O)2,mp-560057,14,-3.992626343888889,3.0588295583332603,-1.1337551171070372,1566.8510210716531,1.1741,7.4041630000000005,15.698258302098358,1.0,1.0
MoPCl8O,mp-560214,62,-3.8306193336363634,2.097926664701054,-1.375673681445584,1350.4411432010095,1.4825,8.4212,17.238945,0.0,1.0
K(Mo6S7)2,mp-560296,163,-7.682027601666667,4.42923194143652,-1.0198063630277787,1229.1531803084802,0.0,9.27955220114419,16.482434,3.0,-1.0
Ag15P4S16Cl3,mp-560328,220,-3.8019514540789454,4.587130632680959,-0.5527179199754133,1709.5912546710772,1.2258,13.04682166438202,13.04682166438202,3.0,-1.0
Cs3CuTeS9,mp-560345,64,-3.8754164969642857,3.193913475519563,-0.933586245672722,1826.8449202169143,1.3256,12.329583999999999,12.865879993452644,3.0,-1.0
Hg2Te2O7,mp-560456,41,-4.511794864772726,7.995541594924897,-1.1832838764772726,1276.6295001603455,1.4253000000000005,7.577964,13.935575041064535,3.0,-1.0
Rb2Sb8O13,mp-560587,11,-5.741720125652174,4.686571668206403,-1.8205579883152176,1917.582803272792,2.3306,7.697239,17.346548000000002,3.0,-1.0
PdSCl,mp-560901,14,-4.124287824166667,3.5984346400136222,-0.8220469396283341,1284.251061634633,0.9775,9.254538,16.849502594299484,0.0,1.0
K4Mn(AsS4)2,mp-560965,13,-4.441844092166666,2.4303197008640973,-1.0614802252770117,1688.182434236313,1.0475,8.731256,21.910597612847923,3.0,-1.0
AsSe2S(NF3)2,mp-560986,14,-4.753383853125,3.0706522588016587,-1.4573691526843746,1760.383373275553,1.5689,10.12706,16.594129000000002,0.0,1.0
NbP4(SCl)5,mp-561020,14,-4.707077912,1.9896979407006663,-1.0145010650807142,1850.710312456731,1.5808,7.2724470000000005,18.74227848161317,0.0,1.0
K6NbAs3O,mp-561202,198,-4.030888386590909,2.7101080076241018,-0.8502775315227269,1392.7394160474262,1.0127,11.167517,11.167517,3.0,-1.0
KP2Au5S8,mp-561218,14,-4.14939882625,5.099748651952928,-0.6437552446964285,1748.4041547598356,0.0,10.346325,14.001717000000001,3.0,-1.0
Rb4Te8O23,mp-561228,62,-5.267954879,5.109321051122153,-1.647416321535714,2249.8677964025837,1.2081,7.427775,20.297703,3.0,-1.0
KAg3As2S5,mp-561304,62,-3.91236641125,4.1288127793477765,-0.6131615838522729,2164.9395272654983,1.6833,6.4417870000000015,19.720468,3.0,-1.0
AsSeS2N2ClF6,mp-561321,14,-4.618129545480769,2.609322929226686,-1.4809675630772114,2013.367536329484,2.2257,9.545536,19.990687,0.0,1.0
Ca51W12N56O3,mp-561360,2,-6.5477223304098375,4.384366768161134,-1.10799650718877,1924.9247016244065,1.7094999999999998,10.612063000000001,16.095275385274928,3.0,-1.0
K3Hg3S2Br5O6,mp-561414,62,-3.8440626335526313,4.5259963837200115,-1.4837024660657894,1876.581321355494,1.999,6.315074,23.017242,3.0,-1.0
Ba8B5N10F,mp-561502,2,-6.785583580104166,4.567052567655792,-1.3816670174301382,1907.7420374103601,2.2188,4.259564,21.22529591927427,3.0,-1.0
Cs7O,mp-561735,187,-1.7760063379166666,2.140222758160621,-0.4618210787625714,2202.7106590548183,0.0,9.311306,16.527535967124074,3.0,-1.0
Co6Te5O16,mp-562042,62,-5.753920671203702,5.42714958008958,-1.4926962667592587,1526.8945065881162,2.309,10.422523,13.030743,3.0,-1.0
CsK4TlO4,mp-562074,61,-3.872472794125,3.9957970578279474,-1.4043414926181037,1854.0454766285209,1.5380999999999998,6.965133,21.732007,3.0,-1.0
Ba21Si2O5,mp-563032,227,-3.5948937000000005,4.15046863969373,-1.0099885995089284,2416.539690018902,0.0,15.062705214235654,15.062705214235654,3.0,-1.0
Cu4GeS4,mp-565590,14,-4.4015313138888885,4.7229254862996575,-0.5224408691666669,1280.0282583779015,0.13370000000000015,9.823299,13.205224,3.0,-1.0
Cu3P4S4I3,mp-565597,185,-4.152145700595238,3.6351673719762414,-0.4082342171513602,2257.0591752912483,1.6302,6.8923380000000005,19.445668448983827,3.0,-1.0
Hg4Se4O9,mp-565679,14,-4.104392438529412,6.485784829786008,-0.9626655803308825,1292.6259491841413,2.253,9.975201,15.29665178494987,2.0,1.0
Ba7Na5Li3N3,mp-567157,216,-3.019824661388889,2.7501468960910285,-0.2648112138225925,1375.554457985792,0.0,12.483343725240363,12.483343725240363,3.0,-1.0
NaW6CCl18,mp-567182,176,-5.557868258846153,4.387142468091931,-1.2940409773851274,1344.5837820721933,0.09559999999999967,9.271855275802572,18.060257,3.0,-1.0
SnHg6(As2Br3)2,mp-567185,198,-2.373077186617647,6.738838708830633,-0.3560367804411768,2071.212081472539,1.3638000000000003,12.747005999999999,12.747005999999999,3.0,-1.0
Nb3Se12I,mp-567252,114,-5.1703366478125,4.834589833423517,-0.5591575561328126,1859.0597378839248,0.0849000000000002,9.784904,19.416914000000002,1.0,1.0
TeI4,mp-567269,31,-1.967734415,4.224738052159862,-0.11986413700000005,1997.3860485926627,1.8301,7.547928999999999,17.422567,0.0,1.0
CrHg6As4Br7,mp-567329,205,-2.6832440530555552,7.002535640947162,-0.3737946608333331,2005.7270072379813,0.2483,12.611225,12.611225,3.0,-1.0
Ag(BCl)6,mp-567334,205,-4.824103894903846,2.5542854862403708,-0.9447183188443588,2004.6574742090008,2.6955,12.608983,12.608983,0.0,1.0
Zr3(VGa2)2,mp-567368,62,-6.680275425694441,6.892853974628563,-0.4665758656944456,1261.2886499777985,0.0,5.426327,16.931019,3.0,-1.0
K8NbAs5Pb,mp-567424,15,-3.5290020225000003,3.1770425140678458,-0.4628196417666662,2064.540988956944,1.2016,13.620182137969007,16.736839978970732,3.0,-1.0
BP(IBr)3,mp-567433,62,-3.015357110625,3.3740714763941937,-0.3184202234672622,1303.61892876206,1.9337,7.964903,13.639435999999998,0.0,1.0
Pd(Se4Cl)2,mp-567437,61,-3.5202991115909086,3.927865214831496,-0.2789467857063638,1368.0571960984973,1.3419,9.215110000000001,14.468399,2.0,1.0
HgI2,mp-567471,141,-1.4260681741666668,5.4344471393489036,-0.3088329758333335,1110.762029466764,1.5319,14.721972621351087,14.721972621351087,2.0,1.0
CuP4I,mp-567472,4,-4.633232893888889,3.664701131638503,-0.08717243876984071,1709.2242809428747,0.8797000000000006,9.841236,13.957393,3.0,-1.0
K3Ga3As4,mp-567524,52,-3.5690185217500003,3.7564794447285728,-0.4638228249000001,1107.150511548653,0.8673000000000002,6.727892,15.191634,3.0,-1.0
Sr8(MnN3)3,mp-567532,14,-6.528925391625,4.454036503176654,-0.9002644353109431,1479.0896533892346,0.0,7.601108,18.951611808962134,3.0,-1.0
Ba12Na15Li8N6,mp-567643,166,-2.8636675441463413,2.425385880133885,-0.2847980497791869,1459.9045078429867,0.0,13.11325896667068,13.113259347833244,3.0,-1.0
Ba21Al40,mp-567701,157,-3.3600771914754097,3.884212973783192,-0.2433325909836068,1694.276245326426,0.0,10.618664192040024,17.350573,3.0,-1.0
Nb3Se10Br3,mp-567731,11,-5.03419504984375,4.319642414313509,-0.6483319550585938,2011.3116781167828,1.2232,8.02314,19.578059,1.0,1.0
AlAs3(SeCl)4,mp-567734,15,-3.9295967329166666,2.895895612638831,-0.8694316610345835,1627.1078969632047,2.4318,12.519789176331404,14.488579614287973,0.0,1.0
Hg4AsI5,mp-567798,64,-1.5875630790000002,6.3051228358196925,-0.2381727850000001,1592.6157731636508,0.9168,8.803469807041312,20.550561,0.0,1.0
K6NbTlAs4,mp-567820,62,-3.6164610904166654,3.492829195198268,-0.4696423135833333,1581.3514523869806,1.2098,7.8785570000000025,19.010320999999998,3.0,-1.0
TlBi(PSe3)2,mp-567864,14,-4.04675497825,5.518028554204875,-0.24138219037053546,1142.4151426233204,1.4116999999999995,7.679053,12.851886385602464,2.0,1.0
AgHg3As2Cl3,mp-567890,15,-2.4283257566666667,6.456012730047433,-0.5590605523829631,1490.5321132681104,1.0962999999999998,13.430993568553633,15.192278739884744,3.0,-1.0
CdHg6(As2Br3)2,mp-567910,205,-2.2086297952941183,6.789362577113344,-0.3731589241176471,2049.636478895984,1.3417,12.702589999999999,12.702589999999999,3.0,-1.0
TeI4,mp-567914,141,-1.96288918725,4.307955397028141,-0.11501890924999998,1958.8022777960816,1.813,14.012080048041975,14.012080048041975,0.0,1.0
TlBi(PSe3)2,mp-567917,14,-4.045817780875,5.522773430465349,-0.2404449929955355,2282.867279319244,1.4432,7.749372,23.546025046099075,3.0,-1.0
Sr11Ga4Sn3,mp-567959,225,-2.872244436666666,4.0905573799711945,-0.4986115832407406,1298.0820732746072,0.0,12.244443456575803,12.244443456575803,3.0,-1.0
AlHg2SbCl4,mp-568001,60,-2.94224192484375,4.514485967523268,-1.25507421147375,2035.492984647252,0.8380000000000001,8.991046,18.195497,3.0,-1.0
Mg15Si2Ir5,mp-568029,86,-3.946632898068181,5.488532344804214,-0.3535883121590906,1672.2753660082851,0.0,8.808725,13.778355,3.0,-1.0
GaHg2SbCl4,mp-568031,33,-2.64710205703125,4.815646276086195,-1.0496193845987498,2026.1030167394376,0.8055,8.980961,18.039820000000002,3.0,-1.0
Mg41Al67,mp-568106,221,-2.862501240833333,2.3017304322188954,0.06865674675925906,2023.0851732996814,0.0,12.647501,12.647501,3.0,-1.0
Zn3As2,mp-568240,142,-2.76608878375,5.422020781169647,-0.14659525574999996,1695.7901419539985,0.17989999999999995,14.630755640950197,14.630755640950197,3.0,-1.0
Ni6Se5,mp-568251,29,-5.002673615,7.196244506604987,-0.2608211178835221,1378.8935873590347,0.0,6.861563,17.012721,3.0,-1.0
K3Na2SnBi3,mp-568329,73,-2.771287708611111,4.40715625543124,-0.3668237020185189,1369.868862356046,0.006600000000000161,14.381060907357776,14.381060907357776,3.0,-1.0
P,mp-568348,13,-5.408668775833332,2.1490901450835844,0.004617085595237806,2010.3316394110086,1.7644000000000002,9.260506,24.11237675762508,2.0,1.0
Li6Br3N,mp-568365,73,-3.5775323028750003,2.5730126269247453,-1.1458534021130002,1524.9505365414095,2.2583,14.027113216802876,14.027113216802876,3.0,-1.0
KInSnSe4,mp-568379,14,-3.79818528625,4.017423000455844,-0.6759995087321425,1945.866851295826,1.3747000000000005,8.044030000000001,18.881529942585964,3.0,-1.0
Ag10Te4Br3,mp-568386,36,-2.8716114861764708,6.9790046980723925,-0.17693246421568634,1740.5254835850399,0.8351999999999999,11.185138594800694,13.915231,3.0,-1.0
Ag10Te4Br3,mp-568392,63,-2.8736928297058824,6.9579081584041775,-0.17901380774509795,1745.8027974086845,0.7545999999999999,11.18626622762184,13.955313,3.0,-1.0
CuMo3Cl7,mp-568397,201,-5.3615962798863634,3.547440176398982,-1.2331333165063638,2245.122253495488,1.9200000000000004,13.094231,13.094231,3.0,-1.0
Cs2SnAs2Se9,mp-568403,4,-3.7714447567857134,4.226051713368852,-0.444172134782558,978.3969021946416,0.7750000000000001,7.429092999999999,18.197094,3.0,-1.0
AlPI8,mp-568423,33,-2.47591623425,3.4400323614548776,-0.3408199731071431,2072.161531990359,1.4267999999999998,11.19623,16.230963,0.0,1.0
Sr7GeN6,mp-568436,60,-5.326119799107143,4.74189647533553,-0.7429605309604759,1078.596827933212,1.1269999999999998,6.6264460000000005,13.938551,3.0,-1.0
Rb2SbBr6,mp-568477,88,-2.8796888747222216,3.82227294012072,-1.1117301386111111,1341.7511307782968,0.0,13.56626092935935,13.56626092935935,3.0,-1.0