pretty_formula,task_id,spacegroup.number,final_energy_per_atom,density,formation_energy_per_atom,volume,band_gap,min_abc,max_abc,Dimension,Dim
Ba5P5I3,mp-30221,12,-4.423642626153846,4.269036077727444,-1.251848679835165,950.8185945159037,0.0,9.572141641253591,21.70147607442952,3.0,-1.0
TlAuF6,mp-30308,92,-3.52322532609375,6.837687170366987,-1.7533709107362498,1001.207174095476,1.4294,5.925775,28.512390999999997,3.0,-1.0
SrAu,mp-30420,11,-3.2610801592500005,7.80358106533422,-0.7793987625833338,1211.154498678657,0.0,4.819416,40.426745455874865,3.0,-1.0
Ca9Cd4Bi9,mp-30446,55,-3.234657204772728,6.3508226104653085,-0.6550087161363639,1407.3113137445596,0.0,4.800603,22.765660999999998,3.0,-1.0
Mo5O14,mp-30544,14,-7.074109469736843,3.8860264274625695,-2.0208183269736857,1202.7786372016535,0.0,5.569338,32.12448516986537,3.0,-1.0
Sr7Pt3,mp-30843,62,-3.63593537125,5.632790891849124,-0.6320261809166666,1413.373142464269,0.0,7.1918690000000005,24.542578,3.0,-1.0
Zn12Pt7,mp-30857,55,-3.5198488421052634,12.364911743725333,-0.48757109,577.5993706350805,0.0,2.801234,29.335715999999998,3.0,-1.0
Nb4AlC3,mp-3103,194,-9.49861596,6.848877700671363,-0.5197236987500009,210.7601666353906,0.0,3.16040250387858,24.365378,3.0,-1.0
SrSnAu,mp-31281,62,-3.7312036483333335,8.226455811389286,-0.7402254322222225,976.8819870006372,0.0,4.8971,23.748597,3.0,-1.0
Bi5NO10,mp-31289,14,-5.898871851875,7.245069563077591,-1.5326657003050004,1117.469216333896,2.6498000000000004,5.6872110000000005,23.506225,3.0,-1.0
Li2S,mp-32899,160,-3.912223476060606,1.6511715652855037,-1.481944942657828,508.28435461741685,1.9737,3.9963564020636615,44.6634640768623,3.0,-1.0
Li2Mn15O32,mp-34891,160,-6.877285178979593,3.986513004387573,-1.7366324131815158,562.300253399766,0.0,5.831491814700249,23.364854165137626,3.0,-1.0
SrFe12O19,mp-3742,194,-6.644157561875,4.847763780656142,-1.9191213206380209,727.3766251742676,1.1467999999999998,5.997738456184715,23.348215,3.0,-1.0
Li7Ti12O24,mp-38468,6,-8.050331749767443,3.976968099527352,-3.166509993565892,420.4519477163437,0.0,3.998507,26.16326877160757,3.0,-1.0
K3Ba7Ti10(O9F)3,mp-39699,99,-7.685013060599999,5.21716248800692,-3.3927424430930686,651.2830860768237,0.20909999999999984,3.9920430000000002,40.867622999999995,3.0,-1.0
Ba10Ta10(N3O7)3,mp-40160,47,-8.701085559400001,8.527886417981325,-2.7311113767533994,709.710083062952,0.0,4.131576,41.513117,3.0,-1.0
TaSe2,mp-501,194,-7.083780080833333,7.840251759461715,-0.8005798857291658,287.0843286259746,0.0,3.4879600282463104,27.248077000000002,2.0,1.0
Mn6P7O24,mp-504168,11,-7.565354459189187,3.3787762807607544,-2.5741622917213784,914.5415819828928,0.0,5.393748,27.074814,3.0,-1.0
Cr6P7O24,mp-504359,11,-7.554707486216216,3.3249346920215617,-2.537700537567567,911.719811217902,0.16500000000000006,5.324821,27.737583,3.0,-1.0
Ni6P7O24,mp-504372,11,-6.523593247027027,3.7420326968346,-2.1591123724324315,845.7602125945622,0.0,5.2486690000000005,26.399323,3.0,-1.0
Sb2Pb2S5,mp-504814,62,-4.404868729444444,5.826664168238933,-0.7328414011805554,932.7654721935228,1.0782999999999996,4.007036,20.458667000000002,2.0,1.0
Ta3Te14Pd3,mp-505132,11,-5.0904914025,7.653378321816291,-0.3345318354999989,1149.2816838064232,0.0,3.7957400000000003,21.261016996242205,2.0,1.0
Sr5Nb5O17,mp-505228,58,-8.147342111666667,5.053002199751778,-3.290666391836419,772.0183543248493,0.0,4.048788,33.151881,3.0,-1.0
BaCoN,mp-505765,62,-6.1974819383333335,5.562269067670707,-0.5375616674599997,1255.4458955952496,0.0,5.474483,23.620387,3.0,-1.0
B4C,mp-530074,1,-7.191892098428571,2.426415294143199,-0.003022541761904612,529.3966925555792,0.0,5.118815483365268,22.36804765029737,3.0,-1.0
Mg(GaO2)2,mp-530121,8,-6.046011830595237,5.112436168418629,-2.526135697738096,887.6835274728204,2.0993000000000004,5.930229489092729,28.983313728451492,3.0,-1.0
Fe2NiO4,mp-530214,8,-6.17693398375,5.089856884328959,-1.5951047958928573,611.7245585699193,1.2775,5.993159440732575,19.925528468190286,3.0,-1.0
Li9Mn22O48,mp-530336,8,-6.81278880556962,3.933241786560053,-1.9323952951080217,860.859188819221,0.0,5.886692933442088,28.72216516293773,3.0,-1.0
Zn(FeO2)2,mp-530392,160,-6.113866592321429,5.114756428929679,-1.8686649858928568,626.1886816115094,1.5624000000000002,6.057647794562651,24.16560598808732,3.0,-1.0
Li13Mn21O48,mp-530398,8,-6.714074617926829,3.9137500917422963,-2.0103438560518527,853.6170404791101,0.0,5.869652197641186,28.713415893428635,3.0,-1.0
Na17(WO3)20,mp-530412,65,-6.767893236082474,6.718431291913145,-2.136640192697595,1242.6278356109653,0.0,3.9466940000000004,21.37986019369334,3.0,-1.0
Zn(FeO2)2,mp-530413,156,-6.111280118095237,5.116048793930834,-1.8660785116666685,939.0457501485183,1.2179000000000002,6.0516552803636285,29.607908000000002,3.0,-1.0
MgMn2O4,mp-530444,8,-7.0961338389999975,4.142115879629129,-2.3040403298900487,794.4815318447238,0.5168000000000004,5.870667398960701,23.42216751968999,3.0,-1.0
Al2FeO4,mp-530567,156,-7.262835748095237,4.108099040780611,-2.9470048316666664,843.0501235412115,2.0381,5.827551335945814,35.043821053555796,3.0,-1.0
Li14Ti21O48,mp-530600,8,-8.016989919277108,3.4349652623577485,-3.2420237146586346,904.1701033883094,0.0,5.975340462322963,29.2367520778475,3.0,-1.0
Li10Mn21O48,mp-530628,12,-6.719411132025317,3.8690547723143363,-1.9095484247626835,854.5411114783462,0.0,5.867864179168601,28.70308492212117,3.0,-1.0
Zn(FeO2)2,mp-530636,160,-6.055489015357144,5.136784676231413,-1.8102874089285717,623.5033755289107,0.7058,6.040496744758718,24.16479912191318,3.0,-1.0
Ni5(Mo3Se4)8,mp-530701,1,-7.042104598360655,6.6867510190758495,-0.4672638868032785,1272.1456949033527,0.0,6.831869999999999,27.245802666090256,3.0,-1.0
Zn(CoO2)2,mp-530742,160,-5.504739634821428,5.530618018188506,-1.403162338392857,593.9393516740913,0.0,5.935567236999862,23.80843502351841,3.0,-1.0
Ga41N11O45,mp-530841,8,-5.9845422503092776,5.945294340786573,-1.8331602321642269,1042.551758593905,0.0034000000000000696,5.943731857055885,34.21099191976395,3.0,-1.0
Ga23N5O27,mp-530844,1,-5.991740319090908,5.915699917233447,-1.9182580436027283,591.0556638286903,0.7519999999999998,5.918063,19.618519006756674,3.0,-1.0
V(CoO2)2,mp-530941,8,-6.809642918452381,5.035640992843553,-1.8306138420238085,921.2315451717493,0.1323000000000003,6.001220418955152,35.94093108802832,3.0,-1.0
Na3(Pt3O4)4,mp-530998,47,-5.697054088548387,11.652072625565765,-1.028489679838709,1519.710242604989,0.01560000000000006,5.73767436,46.12431161,3.0,-1.0
Cd(GaO2)2,mp-531175,160,-5.432728267678571,6.251755282502023,-2.00962217625,671.1573041040851,0.6883000000000004,20.66903704681892,20.66903726937404,3.0,-1.0
Cd(GaO2)2,mp-531238,156,-5.4443766952380965,6.2558089389496425,-2.021270603809524,1006.083608595716,0.6269999999999998,6.175522057478379,30.461837,3.0,-1.0
Li10Mn23O48,mp-531323,8,-6.834887194938272,3.980032858960852,-1.9590740281170664,876.5555534496823,0.0,5.914416008094291,28.87628542225736,3.0,-1.0
Li4Mn3Cl10,mp-531376,8,-4.585200745882354,2.464351022249488,-1.781711296170521,1474.6185484450712,1.2928000000000002,7.4566896653250225,30.75064173758789,3.0,-1.0
LiMnO2,mp-531604,8,-6.624759851,4.006127192969279,-2.154482320112128,778.2470281238268,1.2916000000000003,5.76152790670756,23.79558338086589,3.0,-1.0
Al2FeO4,mp-531674,12,-7.273922749693877,4.114009383936355,-2.9580918332653066,982.145459755488,2.8189,5.8380222073175885,40.765200578119774,3.0,-1.0
TiNiO3,mp-531689,1,-7.342483634000001,4.934833773785957,-2.492758613416666,624.0954126779501,1.5111999999999997,5.499397713225785,33.01173661692489,3.0,-1.0
Li2PtO3,mp-531826,5,-5.468907521666668,7.33084308043792,-1.6979492134027778,698.4720662586482,1.9705,5.269934936202628,29.020915707081194,3.0,-1.0
Li9Ni23O32,mp-531942,1,-4.85340903609375,5.558498589562807,-1.1625849042187504,574.8923035956452,0.005299999999999193,5.864608638002999,23.550330748236323,3.0,-1.0
Zn(FeO2)2,mp-531960,160,-6.1162034581428575,5.130970481125819,-1.871001851714286,780.2623784274631,1.5010999999999997,6.047100159953308,30.1958318384692,3.0,-1.0
Cd(FeO2)2,mp-532027,156,-5.930048901190476,5.537579199220606,-1.7329692733333348,1036.6962814366964,0.9922999999999996,6.2395273456101625,30.748044,3.0,-1.0
Li2IrO3,mp-532085,5,-5.974209038666668,7.439700260027545,-1.7419969454027782,567.1442565780351,0.0,5.186475465792351,24.523241993534235,3.0,-1.0
Ba16Bi16O45,mp-532092,25,-5.873212246493506,7.384242357770977,-2.184913177224026,1407.9243689095633,0.0,4.3858190000000015,35.848856,3.0,-1.0
Al2CoO4,mp-532094,156,-7.1751287221428575,4.2908805322171,-2.9311099607142848,821.4794606135703,0.0,5.781861676820192,28.37466,3.0,-1.0
Al2CoO4,mp-532212,160,-7.088395021857142,4.287840542713413,-2.844376260428572,685.0515603464229,0.0,23.899533767899342,23.899534249716183,3.0,-1.0
Mn17Fe13O40,mp-532236,2,-7.266154825285715,4.619103089037007,-1.9578374878636864,826.8026540527796,0.7313000000000001,6.199281,21.900882937938515,3.0,-1.0
Fe3(CuS5)2,mp-532329,1,-5.3006705875,4.749356091702787,-0.7447825442500005,860.4884330028334,0.0,5.5522839999999976,27.84838256586865,3.0,-1.0
Al2CuO4,mp-532426,8,-6.734629654,4.454937387700278,-2.6527696247142867,676.5503128539888,0.0,5.773059433493907,23.71176881612217,3.0,-1.0
Ga2NiO4,mp-532446,8,-5.761719831428572,5.924590662155593,-1.95386418,587.7722247807742,1.4303,5.915528299741284,19.563253132078128,3.0,-1.0
Li2PdO3,mp-532526,1,-5.2288105429166665,4.886013246854295,-1.6063565513194449,686.3732279805517,0.0,5.1956370000000005,25.93400362651548,3.0,-1.0
V2Hg2O7,mp-540566,62,-5.825189163409092,6.91178420404897,-1.7223863314772732,591.0654242114878,1.2816,3.694352,21.888723000000002,3.0,-1.0
Sn4SI6,mp-540644,12,-3.1518891945454546,5.011310759301236,-0.5468571057386366,840.5443755858996,1.3399,7.663845383729567,25.767328422083594,2.0,1.0
Ge3(BiTe3)2,mp-540687,160,-3.816674166363636,6.583359946465029,-0.1340416422727273,353.49937393890036,0.03500000000000013,22.03874184471632,22.038741906461386,2.0,1.0
Mo4O11,mp-540786,62,-7.1024562425,3.787860172594108,-2.0383967574166664,981.5487858683183,0.0,5.630167,25.093717,3.0,-1.0
Rb6O,mp-540855,176,-1.9650210878571428,1.8375159727485868,-0.5180396730357144,1911.500888771728,0.0,8.463893810393534,30.810834000000003,3.0,-1.0
Hg7(P2Br3)2,mp-541403,14,-2.252277495,7.063837126203801,-0.2757795396638656,943.806463500502,1.3544000000000005,6.190736,20.288184,3.0,-1.0
Sc8Te3,mp-541594,12,-6.123672564772727,4.6352773587294935,-0.6609765984090908,1063.8955509988768,0.0,14.69378295323141,22.50475294051825,3.0,-1.0
Ni4(Bi4I)3,mp-541751,63,-4.04454802763158,9.032289746275133,-0.13017980210526425,1148.3869076438687,0.0,8.301934123812838,34.930536,2.0,1.0
Zr11Sb18,mp-542044,122,-6.393364894655173,7.4946119082486495,-0.5883052653448274,1415.8602207468869,0.0569999999999995,6.838335443097191,30.661156801556363,3.0,-1.0
Ba4Ca4Tl3Cu6O19,mp-542197,139,-5.5355891680555525,6.452213305909377,-1.9787523428819445,516.7869653777112,0.0,3.8678278819400718,34.65246731113616,3.0,-1.0
Na9Sn4,mp-542377,194,-2.330706553846154,3.000652524593534,-0.18684829461538446,754.5485865490127,0.0,5.452940376450582,29.301854,3.0,-1.0
Ba6Na2Mn2Ru2O17,mp-542399,194,-6.481058095344827,5.2823512807845665,-2.3489913942809317,914.11433188438,0.3843999999999999,5.920567746398988,30.112246999999996,3.0,-1.0
Ba5Fe5O14,mp-542530,63,-6.361117925625,5.322982467007922,-2.289485212604168,742.3639200401581,0.0,5.898324252977028,24.715258,3.0,-1.0
Mo4O11,mp-542610,33,-7.0921108933333326,3.9155744560458703,-2.02805140825,949.5336112707421,0.0,5.542087,24.966221,3.0,-1.0
ZnS,mp-543011,160,-3.496834555,3.984701257907226,-1.1304678165624995,284.34144030145967,2.072,22.15738028574825,22.157380811928487,3.0,-1.0
Ba4Al3Cu2F21,mp-553943,19,-5.5332719675833335,4.525303450858873,-3.6351860689163336,1697.2119083856205,0.8043999999999999,5.3801309999999996,42.167598,3.0,-1.0
Y7C3I6O,mp-554027,51,-6.393847881470588,4.728030935933284,-1.3152960548774522,1008.5385700464476,0.0,3.861925,22.651319,2.0,1.0
Na8Nb2Cu4S21,mp-554071,18,-4.476798973857144,2.6660698563171517,-1.0468149253511905,1615.9996504268329,1.1542,6.82454,30.121534999999998,3.0,-1.0
SnS,mp-554134,39,-4.46250266,1.2825756497389549,-0.7212217990625005,390.4140513155272,1.6279,4.140519472406935,22.774007,0.0,1.0
K14In4O13,mp-554146,14,-4.304284857903226,3.0225391207124392,-1.6673180426854846,1334.6115669763346,1.8343,6.9261050000000015,31.863903999999998,3.0,-1.0
Ca4Mn3O10,mp-554162,61,-6.905331948088236,4.1371435109428205,-2.615824703049737,778.8571356357762,0.2972999999999999,5.340001,27.053394,3.0,-1.0
TaBi4BrO8,mp-554207,60,-6.569642308392857,8.74351310052271,-2.0682019398214284,930.416054648116,1.3413999999999997,5.546443,29.89981,2.0,1.0
BaFe12O19,mp-554293,194,-6.6554526296875,5.011014687625417,-1.9232448391796881,736.6234424133885,1.2220000000000004,6.016810597779026,23.495368,3.0,-1.0
Ba6Na2As2Ru2O17,mp-554687,194,-6.40507034862069,5.386080663387449,-2.4676062623419543,921.1534726182184,0.3738999999999999,5.941114302433928,30.134609,3.0,-1.0
Ba6Hf5S16,mp-554688,139,-6.552603907777778,5.299566454236695,-2.224174015185185,698.5650949144897,0.7300999999999997,28.108456512914966,28.108456512914966,3.0,-1.0
V2Zn3TeO10,mp-554700,14,-6.02882216015625,4.2320914880553016,-2.0173847484375003,919.2470212035054,2.8511,5.341455000000002,30.855911,3.0,-1.0
NbS2,mp-555293,42,-7.130373303333332,1.2078462283082534,-1.447945045416667,215.89258446638402,0.0,3.3561786224818255,22.28950508334871,2.0,1.0
Sr4GaN3O,mp-555721,61,-5.443295369166666,4.820052038482523,-1.233395086117406,1318.0059259727393,1.1306000000000005,7.420174,23.862214,3.0,-1.0
Fe12PbO19,mp-555778,194,-6.58012882703125,5.4812581122821555,-1.7918686540234372,715.763516553371,1.1258999999999997,5.9657763730079605,23.222284,3.0,-1.0
Ba6Ti5S15O,mp-555781,20,-6.168947071296297,4.029203227292145,-2.193695273695988,1286.0565566159848,0.6919999999999997,8.602781429040727,24.012056,3.0,-1.0
ZnS,mp-555858,160,-3.497994947,3.976378579589337,-1.1316282085625005,407.0522505291348,2.0047,31.571744064958548,31.571744229026702,3.0,-1.0
Ca5Nb5O17,mp-555924,14,-8.198526146388888,4.380249741713402,-3.2833099401388885,1420.7212570450858,0.0,5.547594999999999,32.8776193531791,3.0,-1.0
ZnS,mp-556005,156,-3.507903135625,3.9956013792460334,-1.1415363971874997,324.07514086565084,2.0389,3.8522008136669097,25.217226,3.0,-1.0
ZnS,mp-556105,160,-3.4979939630000003,3.99343897627529,-1.1316272245624999,405.3132799558535,2.0379,31.52757748239685,31.527578245064674,3.0,-1.0
ZnS,mp-556161,156,-3.509487564285714,3.999723649939485,-1.1431208258482144,566.5469887458455,1.4409999999999998,3.852180225209615,44.08513,3.0,-1.0
Bi2CO5,mp-556210,33,-6.57370445609375,7.860438033099017,-1.794307373125,861.8579406588492,2.2747,5.535521,28.026017,3.0,-1.0
Rb3Sb5O14,mp-556234,55,-5.756660692954545,5.287327317531998,-1.9827550120454551,1368.2911913912856,1.1656000000000004,7.320145,24.938601000000002,3.0,-1.0
Ba2Mn2Bi2O,mp-556391,194,-5.459296829285713,6.395141285535728,-1.055669916782907,425.05240822491294,0.0,4.895144216697298,20.48241000000013,3.0,-1.0
ZnS,mp-556392,156,-3.5085308425,3.999590701887036,-1.1421641040625,566.5658210025409,2.0369,3.851659647752512,44.098509,3.0,-1.0
ZnS,mp-556395,156,-3.508872646875,3.995227754310823,-1.1425059084374998,324.10544766189764,1.9563,3.853076260922952,25.208123,3.0,-1.0
Ba5Ru2Cl2O9,mp-556443,194,-6.3405558630555525,4.786140796269073,-2.5148711612650003,765.8347418788147,0.4784999999999999,5.922067713398506,25.214925,3.0,-1.0
ZnS,mp-556468,160,-3.49788321125,3.999658655900763,-1.1315164728124998,323.74639718611894,2.0152,25.25140515692051,25.25140555032836,3.0,-1.0
Ba2Ca3Tl2(CuO3)4,mp-556574,139,-5.520425465652174,6.180188228621542,-1.9585620063043472,335.814022095938,0.0,3.915303364436656,22.080499655943747,3.0,-1.0
ZnS,mp-556576,160,-3.496344209375,3.9965979323401055,-1.1299774709375,323.99433261578207,2.0639000000000003,25.28356824979339,25.2835684489699,3.0,-1.0
ZnS,mp-556716,156,-3.5097281528571433,3.9984337533664953,-1.1433614144196431,566.7297570657172,1.2132999999999998,3.852014017551468,44.103156,3.0,-1.0
Ba2Ca3Tl2(CuO3)4,mp-556733,139,-5.5418390773913035,6.370942543060748,-1.9799756180434769,325.7593130586144,0.0,21.79863883116584,21.79863883116584,3.0,-1.0
ZnS,mp-556815,156,-3.5081044475,3.998588313871392,-1.1417377090624998,566.7078508251851,2.0421000000000005,3.851951752179666,44.102875,3.0,-1.0
P2W5O19,mp-556914,14,-7.483353418461538,5.63661536198016,-2.3091284961881877,757.1986388126419,0.0,5.395303,21.56974534274529,3.0,-1.0
Ba5Hf4S13,mp-557032,139,-6.5297745663636375,5.267205817324191,-2.2310255745738643,572.9660518059368,0.7751999999999999,23.15322738576702,23.15322738576702,3.0,-1.0
ZnS,mp-557054,156,-3.5086510092857144,3.9985327240188777,-1.1422842708482142,566.7157295167003,1.6894999999999998,3.851959814357491,44.103304,3.0,-1.0
BaCrO3,mp-557081,194,-7.006234077285716,5.885322716359031,-2.5470311360357147,937.44019244222,0.0,5.740694139124467,32.846123999999996,3.0,-1.0
Bi2Au5F21,mp-557090,92,-3.7027574130357146,6.469429976858691,-1.7748635155353572,1849.8650209689408,1.4016,8.409605,26.157055,3.0,-1.0
VAgSeO5,mp-557135,57,-5.9246492340625,4.527557274406104,-1.5548116222200514,466.1798735467376,0.9552,4.345654,20.281616,3.0,-1.0
ZnS,mp-557151,160,-3.49785731625,3.999706062511964,-1.1314905778125,323.7425599742491,2.0324,25.253383551079825,25.25338402461525,3.0,-1.0
ZnS,mp-557308,156,-3.5089694289999995,3.9948975810813177,-1.1426026905625002,405.1652932087365,1.9071,3.853088787202418,31.512556,3.0,-1.0
P(W2O7)2,mp-557415,19,-7.5021539353947375,5.971477210594824,-2.2768324457142866,1101.5525266197772,0.0,5.414169,30.369807,3.0,-1.0
VS2,mp-557523,194,-6.632872795,1.9009382480025607,-1.2895775270833336,201.03832557742768,0.0,3.1881478622807005,22.838696,2.0,1.0
NbIO2,mp-557685,62,-7.298163205625,5.0595826948252585,-2.2690010575,330.5725285206066,1.0433,3.811867,21.660413000000002,2.0,1.0
Y(FeO2)2,mp-557783,12,-7.53773833857143,4.816231410163871,-2.5487185173809532,273.6793914621252,0.0,3.5442133340830373,25.200605591352637,3.0,-1.0
K2Ag4Pt3(NO2)12,mp-557863,14,-5.9662389878888895,4.01067827995523,-0.8753638203605925,1363.802693208536,1.8307,7.2863320000000025,24.140786,3.0,-1.0
K3Sb5O14,mp-557989,32,-5.776255065568183,4.706793419683795,-1.9846405381363643,1340.7478163809014,1.1988000000000003,7.277959,24.689668,3.0,-1.0
Mo4O11,mp-558247,14,-7.084138195166668,3.828695963793861,-2.0200787100833337,971.0798633810988,0.0,5.5991620000000015,25.207703362434945,3.0,-1.0
Bi5BrO7,mp-558302,64,-5.499289372884616,7.707066950752536,-1.5910773443269235,1065.9088442669702,2.7623,8.675604095675414,23.773791,3.0,-1.0
Rb2Ag4Pd3(NO2)12,mp-558305,14,-5.9017164052222215,3.5314948179449313,-0.8760147365605917,1385.925038064417,1.7326,7.326644,24.512529,3.0,-1.0
Fe2Cu3(SeO3)6,mp-558486,14,-5.460477557068965,4.3350740267505525,-1.2822336579849145,815.1841235351593,0.20589999999999967,5.4844269999999975,19.359012,3.0,-1.0
Ba5Ru2Br2O9,mp-558725,194,-6.274329148611113,5.004769074426473,-2.4060804953472226,791.3738537392978,0.4874999999999998,5.9366157674607845,25.928248,3.0,-1.0
Ba7Sc6Al2O19,mp-559325,194,-7.636211783382354,4.978909493266198,-3.5307292537867645,1059.8935269704286,2.4756000000000005,5.857155229299374,35.674517,3.0,-1.0
Bi4Au2O9,mp-559422,61,-5.333544655500001,9.685087639121347,-1.3122853529166671,1884.4066939830109,0.7940000000000005,6.014195,35.015238000000004,3.0,-1.0
CrHg3(PbO4)2,mp-559462,14,-4.832279858571427,7.953539364707388,-1.2650151117857138,998.9376942893235,1.8662,6.576206,22.394206,3.0,-1.0
Ba5Al2In2IrClO13,mp-559534,194,-6.368861708333332,5.9737942441020175,-2.707390634979584,781.5956146072563,0.0,5.943036734731242,25.552576000000002,3.0,-1.0
Cu4Bi4S9,mp-559551,62,-4.336141535441177,6.229733656353656,-0.6176784341544126,1469.9630695892008,0.6525999999999996,3.949214,31.965789,3.0,-1.0
NbBi(TeO4)2,mp-559861,61,-6.549169070729167,6.087582205325169,-2.028896990729166,1494.9848438922754,2.3520000000000003,5.689355,31.93595800000001,3.0,-1.0