pretty_formula,task_id,spacegroup.number,final_energy_per_atom,density,formation_energy_per_atom,volume,band_gap,min_abc,max_abc,Dimension,Dim
Tl3Ag3(SbS3)2,mp-581376,14,-3.728018258928572,6.123761567387831,-0.5366919281250004,1488.8646479795893,1.5999,11.537708,12.245577224375666,3.0,-1.0
Re(TeCl6)2,mp-581449,148,-3.333735478,3.009200198024753,-1.0819127602746663,1435.0258255202698,1.0362999999999998,14.166431863113587,14.166432081749342,2.0,1.0
K2In(PSe4)2,mp-581517,9,-3.887059217307692,3.6151390456803214,-0.5204172812994503,1629.0426082000201,1.3213,12.924664204004873,13.037667970832207,3.0,-1.0
Cs3Te17Mo15,mp-581635,176,-6.668490915142857,6.468035334577582,-0.4168632472512319,2057.443058040919,0.0,10.427077123069534,21.851036999999998,3.0,-1.0
Cs5(KPb6)3,mp-581775,1,-3.0444270175000003,6.385989746572484,-0.17381717283289133,2346.196295036489,0.7385999999999999,10.127881,15.796716917819664,3.0,-1.0
Tl4SnS4,mp-5818,14,-3.7414714772222215,6.311170844603035,-0.7027888947222224,1120.330406921124,1.7881,8.473281,16.014462364134022,3.0,-1.0
CsNa5(WN3)2,mp-581834,14,-6.4103339353571425,4.814844482651355,-0.6174946838484071,1930.1487948114268,1.7780000000000002,9.480526,19.693096138818294,3.0,-1.0
CsAsSe2,mp-581864,14,-3.7679352840625,4.0938306473397015,-0.6313493509671333,1186.8341814645305,1.5081000000000002,7.275789,15.563206,3.0,-1.0
Sr11(Ge2N3)2,mp-581913,125,-4.747130069285714,4.391540323608028,-0.7094520534577777,1012.172889625484,0.18009999999999993,7.32712,18.853331,3.0,-1.0
CsZr6CI14,mp-582176,64,-4.796545470681818,5.100242267198717,-1.035428949678684,1607.6658456416858,0.007500000000000284,11.039928698418892,13.221301,3.0,-1.0
Cs12Nb(In2As3)3,mp-582185,2,-3.2652484008928573,4.626181581622576,-0.433523346256158,2190.2563769065296,0.8099999999999996,9.748777,25.6704127433856,3.0,-1.0
Cs3Cu2Br5,mp-582423,62,-3.1169135545,4.056780779153017,-1.2099882388793102,1515.03762980596,2.131,9.848921,13.851379000000001,3.0,-1.0
Ti4Te9I4O,mp-582657,15,-4.720921641111112,5.036312424713499,-0.8201776208101863,1228.8316714783916,0.4076000000000004,11.95795247144301,20.102851649491026,1.0,1.0
Cs3GeAsSe5,mp-582708,14,-3.7300634130000003,4.0518906917466255,-0.7852723365511853,1542.6839754971686,1.7736999999999998,7.935506,20.25663224720995,3.0,-1.0
Cs3AlAs2,mp-582723,14,-3.111830536458333,3.7539814148264914,-0.4868272437571838,2036.6823719355832,0.7391000000000001,8.989569,19.760520648247734,3.0,-1.0
K8In11,mp-582929,167,-2.2066487526315792,3.4310144528371738,-0.14603229968421064,1525.2932289895075,0.0,18.12323569986621,18.12323595811413,3.0,-1.0
MoP2NCl12,mp-582976,14,-3.9586908765625,2.070307105562972,-1.1667597102276788,1916.4116665545764,0.0,8.445794,21.825425,0.0,1.0
Re2Te5,mp-583070,61,-5.966791065714285,7.6900989425982225,-0.1659969199999998,2618.1695704518825,0.6052999999999997,13.403495999999999,14.506957,3.0,-1.0
Tl3Ag3(AsS3)2,mp-583184,14,-3.7764876153571434,5.941960629174073,-0.5094302609821432,1429.7025336205154,1.5510000000000006,11.363611,12.127797927214074,3.0,-1.0
HgI2,mp-583213,142,-1.4311558002083336,5.3081033510656646,-0.3139206018750002,2274.4009052955466,1.4602000000000002,15.974535373443857,15.974535373443857,3.0,-1.0
Ba7B4Se13,mp-583221,15,-4.852631243958333,4.641145793347313,-1.2860807396723086,1453.3378529529348,2.1190999999999995,10.662999752886146,13.842812335848885,3.0,-1.0
Cs3Mo15Se17,mp-583278,176,-7.082556906428572,5.9564246456036996,-0.6596612582467669,1773.1243052499274,0.0,9.846903989065039,21.115878,3.0,-1.0
GePb5O7,mp-583345,61,-5.710999381346152,8.082426869823914,-1.6413131131730767,2006.2423968801857,2.168,9.558757,17.664686,3.0,-1.0
Mo6PbCl14,mp-583553,201,-5.4869639675,3.7913345293840437,-1.3755154472923816,2241.0385238536223,2.6067,13.086286999999999,13.086286999999999,3.0,-1.0
W2NCl9,mp-583581,14,-5.064339641458333,3.211922709375643,-1.301557648268333,1449.1575365851322,1.7818,9.128375,17.304039000000003,0.0,1.0
K3In2As3,mp-583615,64,-3.2863892840625,3.6293723338422974,-0.43489934456249996,1046.266909796181,0.5947,10.618187416452963,15.099120999999998,3.0,-1.0
BaCaSn3,mp-583645,64,-3.7989578767500003,5.280521582970416,-0.60830062175,1342.2245465381625,0.0,9.36561974384979,17.42365,3.0,-1.0
Na3W3Cl13,mp-583762,14,-4.66407103,3.8253525009874094,-1.5525763585463157,1877.6527658338598,0.918,9.2207,25.274502,2.0,1.0
Ba4LiMo2N7,mp-6011,13,-7.2093183721428575,5.278220196652226,-0.9990756892852376,1064.8348017436797,1.7733,6.555277,17.467205441370982,3.0,-1.0
Ba3(SnP2)2,mp-601867,14,-4.701454826388889,4.5179361676394185,-0.7648770879761907,1136.8804251365186,0.8691999999999998,7.8231470000000005,19.692707000000002,3.0,-1.0
PH9AuC3S3Cl,mp-603254,61,-4.7060134301388885,2.6964087008566247,-0.4172378728492458,1993.782900131536,2.8854,6.737617999999999,18.689212,0.0,1.0
GaSi4H30C10Cl,mp-604970,14,-5.015862261956522,1.1465351265053467,-0.3323164054208689,2131.1208026442982,3.8673,9.303169,15.880405381884492,0.0,1.0
CdSi3PH27C9Br2,mp-604998,14,-4.933862100755814,1.538544389200465,-0.3664228700886369,2256.843058251069,3.6784,12.546058,13.801217000000001,0.0,1.0
GaH19C8,mp-605088,167,-5.17069941547619,1.1465002379921705,-0.2279373558790469,1607.3214756855768,3.5573,18.218291582165573,18.21829202004856,0.0,1.0
H24RuC8(S2Cl)2,mp-605665,61,-4.951870919807694,1.5146018120257718,-0.4072048544461546,1844.1199901283842,2.3672,8.568968,15.019503,0.0,1.0
Ba11In6O3,mp-605809,140,-3.63928068025,5.40780770905079,-1.1214917844375,1380.2513205720431,0.0,12.419606948235398,12.419606948235398,3.0,-1.0
Ba2LiN,mp-605860,137,-3.7951957190625,3.705102898151116,-0.37036154049083336,1059.8532553539958,0.0,8.268627,15.501686,2.0,1.0
Ba11(Cd4Bi7)2,mp-607525,2,-3.162857454242424,7.124941878802687,-0.649152073939394,1243.517490553052,0.0,5.017766,17.215193866604697,3.0,-1.0
Na8In6Au11,mp-607853,57,-2.8604051605,8.973211940871757,-0.3388044783666669,2249.869709864773,0.0,5.622136,26.169399,3.0,-1.0
CsInI4,mp-607987,14,-2.5331293945833333,3.7793075202161663,-0.9092733009051726,1327.51704753138,2.2731,7.8194820000000025,19.577432,3.0,-1.0
P4S3I2,mp-608106,62,-4.250074471111111,2.713279786141929,-0.3478368848511906,1160.1129927189031,1.7917,6.9589490000000005,16.759241,0.0,1.0
As2Pb2S5,mp-608653,4,-4.461561254583334,5.265234296073543,-0.6717301118750001,1828.10296349135,1.6122,8.217523,26.235109,3.0,-1.0
TlHg(AsS2)3,mp-6096,14,-3.943743258636364,4.394694564271681,-0.5364134621590918,1242.5671980923,1.6442,6.203437,17.29997240059489,3.0,-1.0
In2Se3,mp-612740,169,-3.7168398239999996,5.037796362057197,-0.5186194454062502,922.6272610323946,0.9937999999999998,7.341491503178357,19.766375,3.0,-1.0
RhSe2Cl7,mp-613545,14,-3.1517586352499998,2.3311593878752843,-0.83844986900075,1450.280195183093,1.8899,8.218694000000001,14.344576000000002,0.0,1.0
Cs5SiP3,mp-616135,62,-3.2454910497222222,3.817575180580713,-0.3408039980966065,1366.7418809011333,0.8444000000000003,6.063904,15.721589000000002,3.0,-1.0
Cs5SiAs3,mp-616140,62,-3.042929638888889,4.157624523754041,-0.3896317394061302,1465.5881190506796,0.6071999999999997,6.1289440000000015,16.206908,3.0,-1.0
Cs5GeAs3,mp-616141,62,-2.9252883266666667,4.288168827258935,-0.3611333344061304,1489.9840268050089,0.5621,6.122508,16.316648,3.0,-1.0
Te4WCl6,mp-616228,15,-3.850350871590909,4.221072132138142,-0.8454021397327274,1427.162714703512,0.0,12.268348086021893,12.344437591050513,0.0,1.0
In3Te3I,mp-616327,62,-3.120833199285714,5.290501049211068,-0.3766951142857141,1072.3850125415197,1.1366999999999998,4.407874,20.443820000000002,1.0,1.0
K3Nb2CuSe12,mp-6168,14,-4.572378420138889,4.153068960937117,-0.7066033466458327,2101.8063733131908,1.2553,9.707711,17.68974433262081,3.0,-1.0
Te3WICl6,mp-617352,14,-3.709459687727273,4.123998442700669,-0.8517189845054549,1459.6360856459607,0.0,11.006155,12.040671108864734,0.0,1.0
RbTa(CuTe2)2,mp-617442,33,-4.6539368559375,5.894543393003149,-0.4526957606250006,1018.5515078378656,1.2188999999999997,6.024255999999999,20.492393,3.0,-1.0
Cs6ZnGe8,mp-619101,42,-3.0531385233333337,4.251337793439315,-0.14537981117241414,1692.0002236621995,1.2622999999999998,12.891206452409987,16.347997588599807,3.0,-1.0
Cs3AlP2,mp-619651,14,-3.31723552875,3.4189529895258963,-0.4408430839059931,1894.742092602885,0.9831000000000004,8.767592,19.232683234385426,3.0,-1.0
Y7C2I12N,mp-619775,2,-5.434003919318181,4.515086691953715,-1.3449365210930304,1605.8724074083425,1.0406,9.939863,17.0278071971228,3.0,-1.0
Zr(Se2Cl3)2,mp-619928,138,-3.963925461818182,3.0166307045403657,-1.2317025162668185,1364.6645208861155,1.3186,11.048019,11.114009,2.0,1.0
PbN6,mp-620058,33,-7.2568820360714295,4.475043446117719,0.08990084903142913,1296.8340594340912,2.2879000000000005,6.696317,16.386867000000002,3.0,-1.0
Rb2Se5,mp-620372,19,-3.3586533789285715,3.8634221116738487,-0.5814211598883929,972.6362152639638,0.8371,7.064931,18.762928,3.0,-1.0
Cs3Cr2I9,mp-621938,194,-3.478948533214285,4.415352070808012,-0.9283474195566496,1237.1994910043882,1.0376999999999998,8.281196771006773,20.831614000000002,3.0,-1.0
Te6MoBr3,mp-622262,2,-3.73624591675,5.064017097547372,-0.27462309375000016,1444.4437551816752,1.0895,8.635533,14.645100943710835,2.0,1.0
Hg2Pb(SBr)2,mp-622294,14,-2.6496085367857143,4.206263507846075,-0.5724884491071429,1314.322369253672,2.3070000000000004,9.252817,14.194779993884088,2.0,1.0
In2Te3,mp-622511,216,-3.248908552,5.359294282172218,-0.26225450199999994,1707.830294853739,0.0,13.416932565800275,13.416932565800275,3.0,-1.0
Re3(TeBr)7,mp-623087,148,-4.456317400294118,5.7816424292079285,-0.29189540941176434,1155.239717483199,1.1555,13.32806866388383,13.328068733945965,2.0,1.0
Cs3Bi2I9,mp-624214,194,-2.696973478571429,4.58461469402424,-0.9696599591995074,1418.9601571228275,2.3446,8.645077856501349,21.923089,3.0,-1.0
Ru(SCl3)4,mp-624474,14,-3.0437058576470584,1.9547025676860916,-0.7959081609776474,2224.920641033344,0.10749999999999996,11.302983,16.51777472453145,0.0,1.0
In4SnSe4,mp-628768,205,-3.6739405254166666,5.388627459645748,-0.4517235603472223,2203.494467860829,0.8023000000000002,13.012797,13.012797,3.0,-1.0
Sb6Pb6S17,mp-630376,18,-4.378011512931034,5.730661285442892,-0.7197109061422415,1459.7525582662845,0.7809999999999997,3.9917059999999998,23.373965,3.0,-1.0
CsZnAgC4(SN)4,mp-630391,14,-6.193770834833332,2.5403256345146312,-0.3539926346078469,1408.040953448151,2.8679,9.149744,16.876839999999998,3.0,-1.0
Cs7NbIn3As5,mp-631378,2,-3.437202974375,4.3837566856176435,-0.4422176706573273,1319.949207324596,1.1015,8.96862,15.020034462028539,3.0,-1.0
SiI4,mp-635441,205,-2.68153896375,3.2233282834592183,-0.37726606775000027,2207.79594846606,2.8561,13.021258999999999,13.021258999999999,0.0,1.0
AsS7IF6,mp-637112,2,-4.089508924222222,2.561114661454322,-1.4883515314898887,2101.7612242569107,1.8164,11.930099,15.930078153850124,0.0,1.0
As5Pb3S10,mp-637982,14,-4.443272415416667,4.769962966902966,-0.6008595318750002,1833.7200262034867,0.4901999999999998,8.171794,26.464055611037413,3.0,-1.0
Li2Y5In9,mp-638690,129,-4.26770270046875,6.041415120876311,-0.4604930210937504,1640.1109412753194,0.0,10.312666,15.421667000000001,3.0,-1.0
K(GeSe2)2,mp-639900,14,-3.9327706016071433,3.8007027213536215,-0.4556133776607143,1748.3756870780123,0.0,7.858612,17.788830085785968,3.0,-1.0
K4In3Ge20,mp-640312,223,-3.94374675962963,4.6512822162874095,-0.0490354974814814,1394.930407186992,0.0,11.17337,11.17337,3.0,-1.0
Mo3S7Cl4,mp-640341,14,-5.631727321607142,3.0270680222651745,-1.2129228883867864,1435.2330485688008,1.6899000000000002,9.586971,14.360600861056097,1.0,1.0
Cs(BI)6,mp-640353,148,-4.291385073269232,3.6965837838665454,-0.43632132811007934,1723.522361437337,1.6875999999999998,18.257044381182183,18.257044767761293,3.0,-1.0
Rb8In11,mp-640712,167,-2.1428946447368418,3.946512228254024,-0.1369581389473686,1638.2255012845417,0.0,18.59735650549814,18.597356634490424,3.0,-1.0
Mo9O26,mp-640818,2,-7.030286850571429,4.382416019391402,-1.995455723214286,1939.174556082096,1.1725,8.520379622736067,20.14396692437798,2.0,1.0
NaB9Se8,mp-640950,147,-5.276867731851851,3.2219826756143437,-0.3103971776620361,2325.28907315954,1.9459,9.038497,17.235546273581527,2.0,1.0
CsNb2PS10,mp-641699,7,-5.5816286871428575,3.025985140781723,-1.2072574741251765,1471.4269685476984,1.539,7.763684,14.457335357866262,3.0,-1.0
Cu5Si(SbO6)2,mp-641710,54,-5.8066526170624995,5.848170321563367,-1.5502858433125006,1774.8131051604928,0.0,9.512217999999999,19.199811999999998,3.0,-1.0
Sb8Pb7S19,mp-641987,15,-4.405508557794118,5.516642413689816,-0.7288218848345585,1826.329095367633,1.0686999999999998,9.149236901768036,22.058463831996736,3.0,-1.0
Sr11Al4In3,mp-642031,225,-2.5825550708333336,3.4635825704025174,-0.2591301654629632,1357.9325075728484,0.0,12.429807256623173,12.429807256623173,3.0,-1.0
Sb8Pb5S17,mp-642227,15,-4.4093987055,5.250816128920025,-0.7215296052708341,1616.1238217888265,1.4461000000000004,9.100644880840916,20.489119814963967,3.0,-1.0
Sr21In8Pb7,mp-642281,225,-2.8083130452777776,5.0424060794956835,-0.4893934438888887,1386.074235538765,0.0,12.515085748647827,12.515085748647827,3.0,-1.0
Bi32P10Pb3O76,mp-642320,5,-6.268893227355372,7.877534058806193,-2.033996753229044,1862.2967497711936,2.2872000000000003,11.473586970307233,16.546912178939156,3.0,-1.0
Sr11In7,mp-642322,225,-2.448523315833333,4.108041389648681,-0.34596332157407395,1428.9433365536609,0.0,12.642801961252182,12.642801961252182,3.0,-1.0
Sr11In3Ga4,mp-642418,225,-2.519648548055556,3.962567061516409,-0.355663715462963,1330.2241235360561,0.0,12.344682913876808,12.344682913876808,3.0,-1.0
Cs4Sb14S23,mp-642535,2,-4.26298185109756,3.984676280289493,-0.8174600514292469,2478.5146929068687,1.3739999999999997,12.247682000000001,15.082945748614225,3.0,-1.0
Hg12SbBr(ClO3)2,mp-642625,143,-2.3810915089393943,7.78333876648646,-0.6814648304857573,1776.5136866893436,0.0,9.941163000000001,14.364825794801169,2.0,1.0
Ba2(InP)5,mp-642642,62,-4.2154258025,5.082491898707866,-0.4935266677380958,1311.5914885522127,0.3087,4.231361,17.718332999999994,3.0,-1.0
Ba2(InAs)5,mp-644875,62,-3.939258775208333,5.722280385845253,-0.5315960806249999,1420.0099619223224,0.04659999999999975,4.378841,18.269179,3.0,-1.0
CsAs2Se3,mp-645172,62,-3.9227949925,4.3704270735451605,-0.4725660566603806,1579.4587798115806,1.3899,7.658594,15.077238000000001,3.0,-1.0
CsKPt6(S3O14)2,mp-645189,148,-5.8942924947619035,5.456835657364493,-1.652677735111454,1206.7987719597947,1.1189,11.736016981668014,11.736017227187428,3.0,-1.0
Al3Bi5Br12,mp-645282,167,-3.3233935205000003,4.751916549572215,-0.8068926445000002,1456.9771229581934,1.5953,12.870096791476668,12.870096852767658,0.0,1.0
Sr(PN2)2,mp-645364,173,-7.419899724642858,3.880998582878064,-1.087622335118502,2111.193186491988,4.267899999999999,8.18978,17.25291775975606,3.0,-1.0
Ba14Na14LiN6,mp-645662,225,-3.021323764285714,2.711592485368565,-0.3100529458365713,1430.1741414829808,0.0,12.646430833253234,12.646430833253234,3.0,-1.0
Te2Mo3Se7Br10,mp-645663,2,-4.111771791590908,4.126549245244623,-0.4906728509730117,1524.9333162511825,1.474,10.652647,12.862052360422465,2.0,1.0
CsTi(PS4)2,mp-645687,9,-5.096651454583333,2.386444932470962,-1.1465360340339352,1389.5271117478085,1.3724,11.756674591674507,17.589336696407006,3.0,-1.0
Ba14Na11Li5N6,mp-645700,216,-2.997561155277777,2.656848801757372,-0.2590552257670369,1433.8890601806982,0.0,12.657371189371748,12.657371189371748,3.0,-1.0
Y14(InRh)3,mp-646110,137,-6.5481567781250005,5.659503734210683,-0.5042282587916673,2227.374130908738,0.0,9.710123,23.623471,3.0,-1.0
As9Pb7S20,mp-646283,4,-4.441560044999999,5.030353998106217,-0.6254380318750002,1826.130630538516,0.14300000000000068,8.359604,25.978664000000002,3.0,-1.0
In4SnS4,mp-646878,205,-3.9805892530555553,4.64407220209702,-0.7685596705555555,2020.1967246661984,1.1714000000000002,12.641478999999999,12.641478999999999,3.0,-1.0
K5(AsPb)3,mp-646920,62,-3.147839511136364,4.24546728497306,-0.35990395113636353,1630.0142922376162,0.8373000000000002,6.67846,19.767056,3.0,-1.0
ReNCl4O3,mp-647116,14,-5.4082227443055535,3.0189843898200865,-1.16940055699111,1716.2060858387883,1.4522,10.038352,15.759662898629939,0.0,1.0
PBr7,mp-647343,62,-2.362579503125,3.3050564595765097,-0.25360804794642844,1186.326646909281,1.2392,8.342618,15.131229000000001,1.0,1.0
Rb2Cr3O10,mp-647352,61,-6.323527433166666,3.033964511646292,-1.8343364169999998,2131.9859004892533,2.0282,9.484817,19.258219,3.0,-1.0
SbP2SN3Cl10,mp-648469,62,-4.147696233676471,2.1250835503217327,-0.9227262830886974,1913.8741878851474,1.8205,8.997154,16.34346,0.0,1.0
Nb2PS10,mp-648932,18,-5.731273360576923,2.603466873438081,-1.0892891597939571,1371.1476027656936,1.3728000000000002,7.386663,14.134319,2.0,1.0
Sn(S4I)4,mp-649878,43,-3.667118766428571,1.8544342108185168,-0.5398111385714278,2040.4766746986813,0.9754,13.701363351010912,16.539660216848983,0.0,1.0
Sb8(Pb3S7)3,mp-649982,15,-4.4155856457894735,5.690942131954312,-0.7477272048848683,2049.6500926350795,1.4869999999999999,9.198655334854166,25.318815505253955,3.0,-1.0
K2Rb2Re6S13,mp-650124,15,-6.527238160434782,5.237829619625785,-1.1360252292010868,1130.6611176568792,1.3686999999999996,9.71825164455135,13.803292209901555,3.0,-1.0
Cs4Re6Se13,mp-650137,15,-6.044027392826088,6.524721327874416,-0.665956879443169,1361.7479386061225,1.0021999999999998,10.512730764042713,14.52127447298401,3.0,-1.0
Se5SO3F,mp-650178,19,-4.528711068,3.5061461564814196,-1.0177016884783754,1871.1746721483896,1.4033,8.862658999999997,15.515814,0.0,1.0
NbTe4,mp-650328,130,-4.866039093833334,6.5668336756904875,-0.3311373418333337,1830.6791904797608,0.0,9.340803,20.981852,3.0,-1.0
PCN2Cl3,mp-650336,14,-5.529832861904762,1.93035630279228,-0.6288951666349651,1830.7998227347541,3.4967,10.389318,15.769469659046495,0.0,1.0
In3Bi7(Pb2S9)2,mp-651005,11,-4.29990610109375,6.614685967385474,-0.7733530622265632,1613.3156705847755,0.0,4.034889,21.150743241781466,3.0,-1.0
VSb2NCl14,mp-651728,14,-3.5188574456944446,2.6371381432129564,-1.1383966450288894,2027.07435973746,1.1919,6.434262,25.239745935474467,0.0,1.0
Cs2Re2Se5,mp-651741,167,-5.608627278888887,5.543162874661183,-0.7020254452867578,1856.7502867778785,0.7025000000000001,12.954649217388868,12.954649714312039,3.0,-1.0
Nb4Te17I4,mp-651961,15,-4.3265978904,5.394512246453023,-0.32910243320000004,1876.744041631313,0.9773,9.388454376269825,27.122537307220803,3.0,-1.0
PNCl2,mp-652364,19,-4.933456431000001,1.9077755123372242,-0.9650914303678568,2017.3652109131501,3.9764,6.4033440000000015,19.918418,0.0,1.0
Cs4Re6S13,mp-652494,15,-6.508001132391303,5.713502512669077,-1.142886312058658,1200.7311338827362,1.3321,10.041362737305032,13.917956134204836,3.0,-1.0
Mo2Cl8O,mp-653062,13,-3.9323042302272726,2.595463271358524,-1.3045079263481822,1257.8264636964475,0.9251,6.6667369999999995,18.465775761701025,1.0,1.0
P4Se3I2,mp-653559,62,-3.973559817777778,3.2082690696890737,-0.06368169459077361,1272.38794454323,1.7175,7.2392759999999985,16.713714000000003,0.0,1.0
Re2Te4Cl22O,mp-653823,14,-3.4840665132758617,2.640208930859201,-1.0946649599300002,2111.710740252754,0.08360000000000001,9.612757,19.822071337761347,0.0,1.0
KCu7TeS5ClO24,mp-653840,130,-5.549501866923077,3.8449555912253683,-1.6145552482534613,2057.941537609461,0.0,9.947125,20.798780999999998,3.0,-1.0
NbTe2(SeI3)2,mp-653891,2,-3.2983462425,4.3239813540221075,-0.3416366474715912,1946.9608042869672,0.9449999999999998,11.549937,15.908188914882865,0.0,1.0
Cs2Re2S5,mp-653954,167,-6.050745631296296,4.784485774157246,-1.15687802590597,1662.903861959721,0.8111999999999999,12.54692258787349,12.546923278166526,3.0,-1.0
GaAg(PSe3)2,mp-654129,61,-3.988386346375,4.315263003000939,-0.22211713691220186,2195.8529925693583,1.4987,7.722309,23.046631,2.0,1.0
Ba11(Cd4Bi7)2,mp-655147,12,-3.115056278484849,7.122274000551964,-0.6013508981818184,1243.983290277576,0.0,14.607194112783265,17.2085301378378,3.0,-1.0
Te2WCl6,mp-662513,14,-4.0085281552777765,3.590399878458886,-1.03432435634,1205.7371408263605,0.0,6.979417999999999,13.315209,0.0,1.0
Cu(NO3)2,mp-662543,60,-5.951403608981483,2.609847938141217,-0.8982765136770373,1432.0086401167068,0.6831,7.624132,14.337570999999999,3.0,-1.0