pretty_formula,task_id,spacegroup.number,final_energy_per_atom,density,formation_energy_per_atom,volume,band_gap,min_abc,max_abc,Dimension,Dim
Na6CrN4,mp-1247493,137,-4.761183581818182,2.6202177592149885,-0.27474271631999936,311.75172691689016,1.0366,5.7904480000000005,7.337503999999999,3.0,-1.0
Cs2Se,mp-1247784,164,-2.711384256666667,3.29198598674261,-0.9491455160686062,173.90886750200886,1.2841,5.5049464797547305,6.6264140343414235,2.0,1.0
ZrBe2,mp-1252,191,-5.506101646666668,4.429202686272894,-0.16392619333333394,40.95797578791585,0.0,3.2375220000000002,3.8220608185773286,3.0,-1.0
KAg2PS4,mp-12532,121,-4.06783317875,3.6503124457238334,-0.8077386434255955,188.36109719962207,1.3887999999999998,6.351571961189056,6.351571961189056,3.0,-1.0
BaAl9Ni2,mp-12549,191,-4.293520841666667,3.7901393657753433,-0.3610686200000005,217.98599636285613,0.0,3.969939,7.962639548636117,3.0,-1.0
LiMgAs,mp-12558,216,-3.46726528,2.9398339110356995,-0.7444915061111109,59.96782564667181,0.0,4.39350474731256,4.39350474731256,3.0,-1.0
Rb,mp-12628,225,-0.96519287,1.5614484407092162,0.015341202500000041,90.8916472271692,0.0,5.046763932898188,5.046763932898188,3.0,-1.0
Ti2Be17,mp-12648,166,-4.375505533684211,2.478861659429401,-0.1986106527192989,166.76058153414508,0.0,5.544411110365104,5.54441134614316,3.0,-1.0
Be12Pd,mp-12666,139,-3.9163090223076926,3.2209885095075323,-0.06609085384615444,110.61682767622135,0.0,5.551765529331548,5.551765529331548,3.0,-1.0
Na,mp-127,229,-1.31018765,1.0509609400112043,0.004464566666666725,36.32429005511239,0.0,3.613596652389832,3.613596652389832,3.0,-1.0
SnBr2,mp-1272139,164,-3.207763493333333,4.018762626923353,-0.7799551816666668,115.08269153616756,0.0,4.401315000000113,6.859847,2.0,1.0
SrZn,mp-12724,62,-1.68343572625,3.9789552588209904,-0.20882329458333326,255.45462694951462,0.0,4.600355,8.689753,3.0,-1.0
CoO2,mp-1272749,166,-5.738270095,3.1366399769321727,-1.1630538508333323,96.27890431279869,0.0,2.8225396490547303,7.110760289128794,2.0,1.0
Mg13Al14,mp-12766,229,-2.64845823,2.1726835822780326,0.06419740962962964,530.1861810371622,0.0,8.831139902569939,8.831139902569939,3.0,-1.0
YSi2,mp-12769,141,-6.320252731666668,4.139842478163755,-0.5478863472222221,116.38403072337334,0.0,7.81931770635239,7.81931770635239,3.0,-1.0
ScAl2Ni,mp-12781,63,-5.55775712,4.089561211124011,-0.6568177587499999,127.99491981430937,0.0,5.176747815932028,6.686000999999999,3.0,-1.0
Ba(AlSi)2,mp-12863,139,-4.341224832,3.5802269751419886,-0.2890747260000005,114.77450703728687,0.0,7.079579531096674,7.079579531096674,3.0,-1.0
CaSi2,mp-12892,191,-4.586333893333333,2.6035287158997926,-0.3009245866666668,61.38792464439824,0.0,4.102708560916311,4.21125,3.0,-1.0
GeS,mp-12910,63,-4.58577439,4.110012712220945,-0.5377655290624999,84.60642588835198,0.7596000000000007,3.88905,5.923203016294563,2.0,1.0
O2,mp-12957,12,-4.94795546875,1.97448449124032,0.0,107.6438082346079,1.369,4.389828171850123,5.369789702272613,0.0,1.0
P,mp-130,166,-5.3276683,3.1439040720436666,0.08561756142857124,32.71928192588707,0.0,3.7001891775109286,3.700189274955541,3.0,-1.0
Sr2Si,mp-13051,194,-3.2203339066666667,3.5231731298158886,-0.2855750644444441,191.66241541108815,0.0,5.413908119726452,7.550654,3.0,-1.0
SrSi,mp-13053,62,-4.01690383125,3.4633025734647176,-0.4595061945833328,221.9078453526794,0.0,4.058661,8.906592,3.0,-1.0
LiGa,mp-1307,227,-2.7837266825,4.1546372762657535,-0.3152174979166671,61.28263842866429,0.0,4.425382535222012,4.425382535222012,3.0,-1.0
YMgAl,mp-13090,189,-4.269384302222221,3.2620142059842383,-0.3319419711111106,214.09619033835082,0.0,4.557695,7.364894606062263,3.0,-1.0
YAl2Ni,mp-13094,63,-5.581347885,4.672976220183639,-0.6469080216666665,143.25008427167157,0.0,5.52979942867551,6.871327000000001,3.0,-1.0
NaZnAs,mp-13097,129,-2.838803216666667,4.31280566003115,-0.4276318061111111,125.76493120212595,0.3576999999999999,4.1927330000000005,7.154267,3.0,-1.0
Ca3N2,mp-13146,164,-5.234019712,2.7598663770122083,-0.8496709089519996,89.19656446859491,1.4380000000000002,3.854377771553017,6.932803999999999,3.0,-1.0
BaAlSi,mp-13149,187,-4.084470333333333,3.806505581790664,-0.3878501066666663,83.92942303947942,0.0,4.321636379397623,5.189042,3.0,-1.0
YMgCu,mp-13171,189,-4.269738413333333,4.563729581413789,-0.21441913555555608,192.94196740502088,0.0,3.959539,7.501112890895923,3.0,-1.0
Ca,mp-132,194,-1.99952315,1.5690307447009701,0.006076730000000197,84.83082302364734,0.0,3.8966120167218334,6.451322,3.0,-1.0
BaAlGe,mp-13272,187,-3.90508198,4.545636711163821,-0.4758904750000005,86.55823817876984,0.0,4.3866586359101385,5.194098,3.0,-1.0
NaSrP,mp-13275,189,-3.604560131111111,3.0485098431373947,-0.7987536873015869,231.36384362367338,1.2349,4.498083,7.706704481988911,3.0,-1.0
SrLiP,mp-13276,194,-3.981704228333333,3.1055221881588166,-0.977807567857143,134.24819652692344,1.3466,4.384790406806807,8.062694,3.0,-1.0
BaLiP,mp-13277,194,-3.9905309866666654,3.7388190311578815,-0.9101378006349208,155.66187583607132,0.9632999999999998,4.53113969853325,8.754608000000001,3.0,-1.0
CaGe2,mp-13286,186,-4.2296676500000014,4.254430885649773,-0.4791157866666668,144.69347773166788,0.0,4.049587928240601,10.188181,3.0,-1.0
Ba3LiN,mp-13288,194,-3.4357100160000003,3.4806016067622854,-0.31204850714266674,413.08664456492033,0.0,6.942235,8.289066234133552,3.0,-1.0
SrAlGe,mp-13311,187,-3.8230847166666666,4.020470824771902,-0.4703897372222219,77.33469618032404,0.0,4.328426108771871,4.766326,3.0,-1.0
Y2C,mp-1334,166,-7.6774683633333325,4.535817916454604,-0.2908940544444445,69.49298157941755,0.0,6.482894820055081,6.482895508610331,2.0,1.0
CaZn2,mp-13364,194,-1.7826737591666666,4.651337543169066,-0.27431139249999986,244.04118745794395,0.0,5.6478311441013345,8.834237,3.0,-1.0
Al,mp-134,225,-3.74557583,2.7200495853324616,0.0,16.471721384740732,0.0,2.8559547917377817,2.8559547917377817,3.0,-1.0
CaP,mp-1345,189,-4.799922235833333,2.4336083844586733,-1.090479365119047,290.8871303334438,0.6970999999999998,5.7213730000000025,7.662082296285063,3.0,-1.0
Li,mp-135,229,-1.90379596,0.5728329870110183,0.005126906666666597,20.120701709953906,0.0,2.9677114421457813,2.9677114421457813,3.0,-1.0
Na2ZnGe,mp-13520,63,-2.28045229625,3.207975578733292,-0.1524333216666669,190.51677305402,0.0,5.533041000000001,5.937748730648763,3.0,-1.0
Mg(ScGa)2,mp-13570,127,-4.572756528,4.167055053286451,-0.5084746750000001,202.16532952396526,0.0,3.95421,7.150287,3.0,-1.0
Mg2Si,mp-1367,225,-3.0276373966666665,1.975370395749873,-0.15234602333333316,64.4718956285029,0.2934999999999999,4.500856284618738,4.500856284618738,3.0,-1.0
PdS2,mp-13682,61,-4.754225080833334,4.276525016859246,-0.7122712329166667,264.89258142268096,0.6537000000000002,5.5017059999999995,8.607088000000001,2.0,1.0
SnS,mp-1379,63,-4.44848704,3.7528143404336722,-0.7072061790625002,133.42934398277887,1.2008,5.792169,6.345305639532348,2.0,1.0
Sr,mp-139,194,-1.6838999,2.634834000250872,0.0055813533333335386,110.44068279188652,0.0,4.251387991907584,7.0556490000000025,3.0,-1.0
LiCaSi2,mp-13916,62,-4.10034996625,2.129596173287167,-0.4090622695833329,321.84698382128056,0.0,3.804939,10.658816999999999,3.0,-1.0
LiCaGe2,mp-13917,62,-3.80312915125,3.729888447242479,-0.5129845370833332,342.44455992155787,0.0,3.941065,10.755811999999999,3.0,-1.0
ZnP2,mp-1392,14,-4.273197285833334,3.490671257982841,-0.2444255082142863,484.6757952465316,0.7480000000000002,7.3267479999999985,8.896915770052056,3.0,-1.0
Se,mp-14,152,-3.488805096666667,4.403367043888126,0.007106380989583272,89.32902712304569,1.0119000000000002,4.51946568170099,5.049958,1.0,1.0
K3Sb,mp-14017,194,-2.2681761875,2.2445182590446504,-0.40312666725,353.71510025596064,0.3895,6.127727033964959,10.877375,3.0,-1.0
K3As,mp-14018,194,-2.31937964,2.065450330721004,-0.32180082850000025,309.0686837128629,0.1118,5.86254843396044,10.383685,3.0,-1.0
SrSi2,mp-14172,213,-4.542630200833334,3.3771191977228887,-0.3625937697222224,282.8097664855631,0.0528000000000004,6.563942999999999,6.563942999999999,3.0,-1.0
K3Cu3As2,mp-14205,166,-3.42631820375,3.788903767484536,-0.3079364961250004,200.62665732744583,1.3542,7.649335823431013,7.649336040096879,3.0,-1.0
K3Ag3As2,mp-14206,166,-3.00691475,4.24194242462473,-0.3635270423749999,231.25050589189576,1.2928,7.99234064003412,7.992340644028193,3.0,-1.0
LiYSi,mp-14208,189,-5.213143848888889,3.4164836787186164,-0.6129078488888887,180.70729569625487,0.0,4.23997,7.015217133034232,3.0,-1.0
Be2B,mp-1432,225,-4.677913293333334,2.0071218500498262,0.04149254027777794,23.85617416323905,0.0,3.231260201133917,3.231260201133917,3.0,-1.0
Li12Al3Si4,mp-14378,220,-3.086316785263158,1.5776840377499743,-0.14710320789473705,582.2073184907705,0.0,9.111009868209342,9.111009868209342,3.0,-1.0
CsO2,mp-1441,139,-4.46962222,3.732205735024993,-0.9698377834770112,73.36946887965796,0.0,4.851577516984347,4.851577516984347,3.0,-1.0
Cs2P3,mp-14652,69,-4.0667230839999995,3.1937037304052924,-0.4605906183152712,373.03949639328073,1.0748000000000002,6.981158804211519,9.198511015409668,3.0,-1.0
Se,mp-147,148,-3.4667803750000004,4.024939423024076,0.029131102656249887,195.4556095160665,1.5760999999999998,6.753734826490303,6.753735020016849,0.0,1.0
Be12Mo,mp-1475,139,-4.413850918461538,3.0970015373398945,-0.1278049638461541,109.42619091380918,0.0,5.52053548737747,5.52053548737747,3.0,-1.0
Ca3MnN3,mp-14763,63,-6.5601326900000005,3.3223794358699386,-0.983572308113596,217.1070756322069,0.0,5.036775,6.6319482416835855,3.0,-1.0
BP,mp-1479,216,-6.453834455,2.9526018183160376,-0.4074956388690474,23.499690767363862,1.4661999999999995,3.2150844264074934,3.2150844264074934,3.0,-1.0
BaSi6,mp-1480,63,-5.0061233364285735,3.5851357009979075,-0.0817154864285722,283.31383271633683,0.0,5.701812067503628,12.007895,3.0,-1.0
Zr2Al3,mp-1482,43,-6.187818729,4.65076550038752,-0.5213929790000001,188.08676909356998,0.0,5.570266281776574,8.481802285575926,3.0,-1.0
Si,mp-149,227,-5.42531402,2.2811942835376744,0.0,40.888292848664825,0.8526999999999996,3.866974653264745,3.866974653264745,3.0,-1.0
Si4P4Ru,mp-14983,1,-6.206014047777778,3.657796673934657,-0.3583708054761906,153.12812071673045,1.4916999999999998,4.97029,6.208292828784738,3.0,-1.0
RbFe2Se3,mp-15120,63,-5.173627366666667,4.495597991849959,-0.4389149890885419,320.64109139106154,0.0,5.453814,7.765314537037697,3.0,-1.0
Cu2GeS3,mp-15252,9,-4.524087765833333,4.364836904769699,-0.6506859665624999,225.1622936127396,0.3743000000000008,6.511088333803268,6.515286909172458,3.0,-1.0
Mg,mp-153,194,-1.59089389,1.7720891684001192,0.00938616000000003,45.550080360967776,0.0,3.2030274656338804,5.126691,3.0,-1.0
CsSnSe3,mp-1542038,2,-3.763738949,4.205213499765058,-0.6851972169924565,385.7905344314576,1.2725000000000002,7.2144816062480475,8.11715917429473,3.0,-1.0
Rb2As3,mp-15556,69,-3.601273442,3.5175791321342214,-0.41358877000000016,373.5955600069635,0.6437000000000002,6.949076500493716,9.328063018138817,3.0,-1.0
Cs2As3,mp-15557,69,-3.597974568,3.863183932077862,-0.4443425761724139,421.7350949927649,0.6814,7.260203576079668,9.630255560007793,3.0,-1.0
CaSi,mp-1563,63,-4.2539245575,2.3771612189373754,-0.5384676075000003,95.22968300550166,0.0,3.901522,5.818035612113164,3.0,-1.0
CaMgGe,mp-15641,62,-3.3112780591666664,3.2155408005509534,-0.5683087974999997,283.04046956424406,0.0,4.4609879999999995,8.419295,3.0,-1.0
SrMgSi,mp-15642,62,-3.2982568583333336,3.0319172219731576,-0.3932317505555556,306.72724611247,0.07130000000000036,4.596335,8.530591000000001,3.0,-1.0
SrMgGe,mp-15643,62,-3.1728550166666665,3.887710143331878,-0.5352586305555551,315.3294680187953,0.0862999999999996,4.628729,8.647173,3.0,-1.0
Sc4C3,mp-15661,220,-8.0583901,3.799358904962551,-0.4855017399999986,188.68283374649903,0.4656000000000002,6.258228657399791,6.258228657399791,3.0,-1.0
NaSe,mp-15668,194,-3.2344352275,3.245401126502061,-0.8291533803385418,208.6541146952289,0.4941,4.7257275675282,10.788447,3.0,-1.0
K2CuAs,mp-15684,63,-3.092630895,3.1512412315077283,-0.3478501527500004,228.34136900493482,1.5884,5.931404,6.329319750826309,3.0,-1.0
Na2CuAs,mp-15685,63,-3.21830162375,3.6052630323773207,-0.37139424666666665,169.90809078332364,0.7429000000000001,5.3246980000000015,5.712557521891749,3.0,-1.0
Li2CuAs,mp-15686,194,-3.66289634375,4.1881760154098036,-0.5188536416666665,120.8079420015157,0.0,4.1936182409562495,7.93208,3.0,-1.0
KZnAs,mp-15687,187,-2.811325516666667,3.6025381087044623,-0.4682385293333334,82.70521758178221,0.202,4.2611592988744285,5.259526999999999,3.0,-1.0
Be2C,mp-1569,225,-5.800457516666667,2.4612616144131447,-0.2319220400000006,20.263752885011023,1.4432999999999998,3.0601658159308944,3.0601658159308944,3.0,-1.0
P,mp-157,64,-5.375895105,2.4363411481751363,0.037390756428571585,84.44325110889318,0.11509999999999998,4.552418,5.849006185381067,2.0,1.0
KNa2Sb,mp-15724,225,-2.39618498,2.8904264392064976,-0.4290088249166668,118.82755662665261,0.6680000000000001,5.518368800610556,5.518368800610556,3.0,-1.0
Mn3Al9Si,mp-15819,194,-5.3979525488461535,3.9050782339368713,-0.27328978722811625,370.5700253904621,0.0,7.483664747044727,7.640311,3.0,-1.0
Be12Cr,mp-1590,139,-4.2445675561538465,2.4927677730586453,-0.05025972153846134,106.67761420481743,0.0,5.488657613444202,5.488657613444202,3.0,-1.0
Al4C3,mp-1591,166,-6.186745705714286,2.930804106770353,-0.09208207428571416,81.56406797660878,1.3422,8.59324208982256,8.593242544660312,3.0,-1.0
Na3P,mp-1598,194,-2.67701515125,1.7517810886720495,-0.33770452339285706,189.47501257826562,0.4028000000000001,4.971196845940925,8.853183,3.0,-1.0
B,mp-160,166,-6.679391770833334,2.476400292715375,0.0,86.99120849801606,1.5219000000000005,5.050374620817154,5.050374667224799,3.0,-1.0
B,mp-161,166,-6.652398487809522,2.3062306481269723,0.026993283023810884,817.3376872244841,0.0,10.122992976768332,10.122993212349202,3.0,-1.0
BaCaGe,mp-16252,62,-3.4319920741666667,4.065394383197685,-0.5827925524999996,408.5305894297113,0.19059999999999988,5.1112459999999995,9.257000999999999,3.0,-1.0
BaCaSi,mp-16253,62,-3.53400027,3.413083528634504,-0.4173720266666668,399.90231730623185,0.1767000000000003,5.072547,9.190732,3.0,-1.0
CaZnGe,mp-16263,194,-3.159739946666667,4.447898386511679,-0.5302828316666668,133.00071926698521,0.0,4.3178801987591084,8.237249,3.0,-1.0
CaZnSi,mp-16266,194,-3.34831139,3.4609674964291304,-0.4514255533333327,128.17361313116874,0.0,4.239916895546421,8.23291,3.0,-1.0
Rb3Sb,mp-16319,194,-2.11532347,3.080716587328593,-0.3476726056249999,407.66820410624405,0.0878000000000001,6.430469672405352,11.383892999999999,3.0,-1.0
SrAl2,mp-1638,227,-3.314438101666666,3.3023727657339483,-0.2542271305555553,142.38503496608874,0.0,5.861288719428347,5.861288719428347,3.0,-1.0
Al9Rh2,mp-1645,14,-4.906086356818182,4.1497827635567965,-0.5025592468181818,359.0512268155259,0.0,6.369528,8.765946827444711,3.0,-1.0
Al12Re,mp-1648,204,-4.543249296153847,3.956298541354384,-0.12852336192307726,214.05128460093133,0.0,6.52699444531187,6.52699444531187,3.0,-1.0
BaAl9Fe2,mp-16483,191,-4.697446439166667,3.7243295679969326,-0.3166831841666671,219.29787150584613,0.0,3.949832,8.006866553651871,3.0,-1.0
Al9Co2,mp-16488,14,-4.688866784545454,3.608519273468693,-0.3318833245454545,331.96820642659145,0.0,6.198935,8.56062329133954,3.0,-1.0
SrAl9Co2,mp-16491,191,-4.5374987141666665,3.512871095315868,-0.4028071047222224,211.9216015477355,0.0,3.9129199999999997,7.908093740612148,3.0,-1.0
YAl2Co,mp-16493,63,-5.80938150875,4.694791723929044,-0.5428963666666666,142.75406763111678,0.0,5.431604912613214,7.0210820000000025,3.0,-1.0
Si,mp-165,194,-5.41189677,2.2823657389088443,0.013417249999999823,81.73461274842056,0.5139000000000005,3.850481801840648,6.365686,3.0,-1.0
Li3Al2,mp-16506,166,-2.830830348,1.5386201705354483,-0.187246296,80.71205954952897,0.0,5.3720493916882415,5.372049394207019,3.0,-1.0
Mn3Al10,mp-16511,194,-5.2233902980769225,3.7833306593270617,-0.2279381664588851,381.5258903362768,0.0,7.520671995210601,7.788971000000001,3.0,-1.0
Al6Ru,mp-16529,63,-4.864784715714285,3.9265351998098166,-0.32937833928571386,222.4118999447996,0.0,4.982719495671817,9.039062,3.0,-1.0
Ca,mp-166,139,-1.98438209,1.5738101244536746,0.021217790000000125,42.2866034962744,0.0,3.805225911927437,3.805225911927437,3.0,-1.0
Al6Tc,mp-16718,63,-4.962776842857143,3.7940057029501935,-0.272194715714286,227.49371289815403,0.0,5.048425242354491,9.019944,3.0,-1.0
Al12Tc,mp-16719,204,-4.416373975384615,3.2773896931732325,-0.16194860076923098,213.7004388135453,0.0,6.523426420648277,6.523426420648277,3.0,-1.0
Y3Al2,mp-16723,136,-5.7326396135,4.09262974869367,-0.3545266135000006,520.4504116575515,0.0,7.640163,8.253504,3.0,-1.0
LiB,mp-16726,62,-4.3892595575,1.0891881945231687,-0.09510223875,108.25636803082756,0.0,3.079669,6.150395,3.0,-1.0
Y(Al5Fe)2,mp-16744,63,-5.038766535,3.8409181879030543,-0.35705613705128225,406.74453166213,0.0,6.758543587903018,8.975435000000003,3.0,-1.0
C,mp-169,166,-9.225443465,1.8803468488618569,0.001337235000001158,21.213359204749427,1.7730000000000006,4.265459787103027,4.265460115147368,2.0,1.0
FeSi2,mp-1714,64,-6.883187516666666,4.958877557942405,-0.44297720999999984,300.07910767846533,0.6975999999999996,6.284147312598583,7.817765,3.0,-1.0
CaZn2,mp-1725,74,-1.807276495,4.41586395283821,-0.2989141283333332,128.5272768167053,0.0,5.768675220902367,5.768675220902367,3.0,-1.0
KO3,mp-1726,140,-4.644862575,2.049411685798161,-0.6562962366875,282.280308668779,0.7121000000000001,7.218406266682625,7.218406266682625,3.0,-1.0
SrSi2,mp-1727,141,-4.545720673333333,3.472602102241728,-0.365684242222222,137.5168049177549,0.0,7.655674088424154,7.655674088424154,3.0,-1.0
MnAl6,mp-173,63,-4.693050521428573,3.35278314777904,-0.1737417428078822,214.7768869199247,0.0,4.964330805694559,8.819153,3.0,-1.0
Sc5Ga3,mp-17332,193,-5.615758489375,4.246061228716012,-0.5224294853124993,339.41504748047004,0.0,5.953337,8.113719446441872,3.0,-1.0
CaAl4,mp-1749,139,-3.5923710439999996,2.3116986040954672,-0.19479040400000044,106.31432660161295,0.0,6.40287375839888,6.40287375839888,3.0,-1.0
Mg5Ga2,mp-1770,72,-2.133569427142857,2.9819472616769285,-0.12534210500000015,290.650707555417,0.0,8.278263639960315,8.278263639960315,3.0,-1.0
Li15Ge4,mp-1777,220,-2.807791646052632,2.1393169259098874,-0.3274782555263158,612.6939381191628,0.0,9.267341309998892,9.267341309998892,3.0,-1.0
MnS,mp-1783,216,-7.121073265,3.4117933921511705,-0.803725096390087,42.344872191855295,0.0,3.9123581806948615,3.9123581806948615,3.0,-1.0
RbO3,mp-1806,14,-4.602536365625,2.8803564579102354,-0.6464362459375002,307.77511089530907,0.8986,6.176114,9.0178733483664,3.0,-1.0
KGa3,mp-181,119,-2.7253401108333333,4.087239819342063,-0.1766687472083334,302.593609989588,0.6231,8.730396004800811,8.730396004800811,3.0,-1.0
Ba2Mg17,mp-1813,166,-1.6903768036842106,2.238174411335806,-0.056550355789473886,510.31926968970635,0.0,8.046908723448155,8.046909005119046,3.0,-1.0
Ca3Cd2,mp-18167,136,-1.8608533790000001,3.620506934488978,-0.2883375469999999,633.0372829357431,0.0,7.9847160000000015,8.903995,3.0,-1.0
SrGa2,mp-182,191,-3.0820245266666664,4.754548008729985,-0.5001337738888886,79.30342968548804,0.0,4.356883804848139,4.824023,3.0,-1.0
Ti3Al,mp-1823,194,-7.1371698425,4.248868625006788,-0.27915687249999976,133.33383280338535,0.0,4.655282,5.750847600499947,3.0,-1.0
Mg2Pd,mp-18316,227,-3.3166962979166663,4.602694708910617,-0.5232156612499997,447.4480933903665,0.0,8.585242231467786,8.585242231467786,3.0,-1.0
NbAl3,mp-1842,139,-5.763154285,4.501843513933613,-0.4286461524999998,64.12625614366692,0.0,5.106914835886045,5.106914835886045,3.0,-1.0
CaBe13,mp-1845,226,-3.713545426071428,1.947352099682553,-0.09797634571428608,268.1560550614124,0.0,7.23826038184991,7.23826038184991,3.0,-1.0
SiAs,mp-1863,12,-5.114222023333333,3.3101751996131403,-0.07200581083333367,310.03914301665316,1.484,9.057021087979203,10.22790167770594,2.0,1.0
KO2,mp-1866,139,-4.54859746,2.2174535825043846,-0.9771474984999996,53.24102971239235,0.0,4.397084815985586,4.397084815985586,3.0,-1.0
Mg3Pd,mp-18712,185,-2.9155664454166668,3.792747316760984,-0.4203859554166665,471.0982545966602,0.0,8.042159254093145,8.410765,3.0,-1.0