pretty_formula,task_id,spacegroup.number,final_energy_per_atom,density,formation_energy_per_atom,volume,band_gap,min_abc,max_abc,Dimension,Dim
K3B12H12I,mp-24240,166,-4.934239179642859,1.8295876452698707,-0.5097837995514288,350.358909960377,4.9938,7.066283347064,7.06628344344904,3.0,-1.0
Rb3B12H12I,mp-24241,166,-4.9302725985714275,2.330399327824287,-0.5197313121764279,374.1879863284961,4.971500000000002,7.2166200956377065,7.216620891611947,3.0,-1.0
Sr2H6Ru,mp-24292,225,-4.250874732222221,4.2164941113340415,-0.6851222733392588,111.19804263752096,2.3107,5.397641631431453,5.397641631431453,3.0,-1.0
CsBeH3,mp-24341,11,-3.063405915,2.1149162354908695,-0.1926008707582067,227.60328993823362,3.3425,5.108013,7.869725007773588,3.0,-1.0
PH4I,mp-24409,129,-3.5043379983333334,2.7952309540670037,-0.1882971446752381,192.368982318052,3.9619,4.667346,6.419963,0.0,1.0
K2LiAlH6,mp-24411,225,-3.083112205,1.6424449518840163,-0.3517405491053335,119.46857154298662,2.4456,5.528273952401419,5.528273952401419,3.0,-1.0
K2NaAlH6,mp-24412,225,-2.999620365,1.6609445173582338,-0.32767577410533344,134.1827847171815,2.3908,5.74650690406546,5.74650690406546,3.0,-1.0
Na2LiAlH6,mp-24413,14,-3.0802903705,1.4291727398087877,-0.30806806067199977,199.7279392923428,2.8483,5.183075,9.004187817412184,3.0,-1.0
CaHBr,mp-24422,129,-3.68048856,3.252075278723843,-1.3864008662066665,123.55711649727192,4.1669,3.849445,8.338185000000001,2.0,1.0
SrHBr,mp-24423,129,-3.6291198,4.16034044687702,-1.4404049817622218,134.53411994201622,4.0775,4.225896,7.5334660000000016,3.0,-1.0
BaHBr,mp-24424,129,-3.741692691666667,4.617233497270195,-1.4764813478733334,156.9746411731737,3.4560000000000004,4.586028,7.463733,3.0,-1.0
Rb2CaH4,mp-24517,139,-2.81823293,2.3627853310798708,-0.4002879770685713,151.13147041921854,3.4203,8.077128416453709,8.077128416453709,3.0,-1.0
Rb4Mg3H10,mp-24662,64,-2.7347107405882354,2.429170721500473,-0.3158670315411765,580.8615430855065,3.4262,7.698625696202733,13.568273000000001,3.0,-1.0
RbH,mp-24721,225,-2.333809105,2.610597082513753,-0.2236737380599996,55.00517316325,3.2017,4.268803638023187,4.268803638023187,3.0,-1.0
Na3H6Rh,mp-24747,62,-3.48878485775,2.504583797537393,-0.4141164089219999,471.85033418153745,3.1104000000000003,5.2390989999999995,9.602926,3.0,-1.0
Rb3B12H12Br,mp-24796,166,-4.955038930357143,2.197880337581062,-0.5404650037835707,361.2395550660896,5.0984,7.132876734926517,7.1328768204690745,3.0,-1.0
Rb3B12H12Cl,mp-24798,166,-4.972856239642859,2.0560071223148806,-0.5719635831857143,350.26566074150065,5.2717,7.058099308460102,7.05809982617992,3.0,-1.0
Cs3B12H12Cl,mp-24799,166,-4.976901446428571,2.4971744797718616,-0.5851300435890389,383.0188573356713,5.2742,7.2703324897421995,7.270333162136657,3.0,-1.0
NaBH4,mp-24810,62,-3.8916948616666662,1.11081524455256,-0.39952975616333336,226.2208523543748,6.2163,4.272996,7.5400399999999985,3.0,-1.0
LiBeH3,mp-24817,2,-3.3867901993333334,0.7724480508831719,-0.3132810561720002,244.7702714914016,4.8251,6.050269,6.814321991243002,3.0,-1.0
LiBeH3,mp-24818,2,-3.383534597,0.7192702054379653,-0.3100254538386665,175.2445906959739,4.8942999999999985,4.6995260000000005,6.511961852045895,3.0,-1.0
Na5Al3H14,mp-24822,128,-3.1209471279545453,1.4794043494699476,-0.24975159010666625,471.4341680212257,2.5979,6.761324,10.312348,3.0,-1.0
N2,mp-25,205,-8.336493965,0.926593573513627,8.881784197001252e-16,200.81013474720945,7.456399999999999,5.8559209999999995,5.8559209999999995,0.0,1.0
BeTe,mp-252,216,-3.80072132,4.985107253660792,-0.3593644225000001,45.50551345066509,2.2113000000000005,4.0073721188828975,4.0073721188828975,3.0,-1.0
Li2Te,mp-2530,225,-3.3577895066666668,3.3991365697840776,-1.0374072855555558,69.11648984895743,2.517100000000001,4.606441469185514,4.606441469185514,3.0,-1.0
BN,mp-2653,186,-8.69411373,3.452005209051759,-1.378181750773333,23.876418427815253,5.3629999999999995,2.553939203480772,4.2268550000000005,3.0,-1.0
LiN3,mp-2659,12,-6.8610118825,1.790105988509919,-0.4194270251183321,45.4173215527784,3.6643,3.300365493665967,4.988582709552083,3.0,-1.0
K2O2,mp-2672,64,-4.092120515,2.312132547633942,-1.2960533071250002,158.28138127017425,2.396,4.911587910544816,6.565060000000001,3.0,-1.0
Hg2P2S7,mp-27171,5,-3.8446581,4.15062097954915,-0.5951252344561688,275.08116212949227,1.8397,6.325543245149226,8.486461881903082,3.0,-1.0
HgPS3,mp-27178,2,-3.810953571,4.241494369862279,-0.5837664055892866,256.63418656812854,1.9798,6.377665,7.782195858906276,2.0,1.0
RbIO3,mp-27193,160,-4.430012508,4.364068893926552,-1.3817038892500002,99.07161131798573,3.1942000000000004,4.6282097063233865,4.628209825005992,3.0,-1.0
TlCl2,mp-27205,88,-2.839080766666666,4.468099385701331,-1.2159624555066664,409.23766264452917,2.3141,9.445541557674023,9.445541557674023,0.0,1.0
CsSnBr3,mp-27214,221,-3.186995142,4.000913232180879,-1.2238443725862072,203.92055039100566,2.385,5.886001,5.886001,3.0,-1.0
PBr3,mp-27257,62,-2.968575925,2.51656289810673,-0.3875595546428574,714.4415629929973,3.3482000000000003,6.961028,10.970765,0.0,1.0
Be(BH4)2,mp-27344,110,-4.135880854659091,0.6024926908335172,-0.2253272457766665,853.2424965321443,6.1876,10.698025501815929,10.698025501815929,1.0,1.0
AsO2,mp-27356,62,-5.981870979166668,3.9540026347782997,-1.5983878650000003,359.2218167076737,3.3948,5.325336,8.961441,2.0,1.0
SeOF2,mp-27367,29,-4.43823526125,3.074636492888286,-1.792565957743438,287.22611649838984,4.0951,5.774916,7.824889999999999,0.0,1.0
RbGeCl3,mp-27369,11,-3.5528140020000003,2.5890971180415554,-1.6797910304560002,339.23598319932967,3.8813,5.91437,8.36143007540337,3.0,-1.0
TlHg5Cl11,mp-27386,12,-2.075373779411765,4.9455317920305015,-1.0358199235799999,536.3237421992102,2.7263,6.688746027288673,9.640435463799184,0.0,1.0
NaIO4,mp-27401,88,-4.409171283333333,3.9536616709286463,-1.105616832222222,179.6692710268979,1.8873,7.1964735424256245,7.1964735424256245,3.0,-1.0
KBrO4,mp-27428,62,-4.139883152083333,2.8307856291164124,-0.8515519250833327,429.3910213593171,3.1097,6.075943,9.177883999999999,3.0,-1.0
Zr(IO3)4,mp-27437,85,-5.199103501176472,4.786085290724409,-1.3407660473529417,548.7624233973254,3.2024,7.54299,8.529438,3.0,-1.0
AlPS4,mp-27462,16,-4.868182913333333,1.6516397676739525,-1.0263793868452378,374.43731677694086,2.6710000000000003,5.7123029999999995,11.466788000000001,1.0,1.0
WSCl4,mp-27475,2,-4.880832844166666,2.8034849330202265,-1.3064128035274998,423.7604748936717,1.9711,6.693469,8.376008491159139,0.0,1.0
Li6Br3N,mp-27508,225,-3.5079879000000003,2.651527448204292,-1.0763089992380002,184.97437149924625,2.1401,6.395514963682598,6.395514963682598,3.0,-1.0
SeO3,mp-27519,114,-4.9437162909375,2.9807413911378773,-0.8854893199609375,565.8164148074245,2.4589,5.552218,10.094958,0.0,1.0
PI3,mp-27529,173,-2.55437877125,3.359717132738262,-0.058047844642857616,406.9524935076319,2.3551,7.464843532963033,8.432797,0.0,1.0
CsB9H14,mp-27590,2,-4.687583092291667,1.573376134765894,-0.25565636025462624,515.7007395445187,3.7975,5.882789,10.104328089833732,1.0,1.0
LiAlH4,mp-27653,14,-3.3434720508333338,0.9068976413995684,-0.2412311604688888,277.9788707948962,4.7794,4.861909,7.870046805190551,3.0,-1.0
IrCl3,mp-27666,12,-4.09451405625,4.889512785288924,-0.9445182186950004,202.80021103160462,1.9402,6.142372238200887,6.515188846710278,2.0,1.0
PH4Br,mp-27689,129,-3.599593181666666,2.3540322724163016,-0.2647333405085715,162.11481264823357,4.3612,4.369208,6.0913,0.0,1.0
BPS4,mp-27724,23,-5.084108851666667,1.6117612325409585,-0.7533360017063492,175.19094309431068,2.2994,6.693683854837782,6.693683854837782,1.0,1.0
SO2,mp-27726,41,-5.741653651666668,1.4003950306506645,-1.7535467168750003,151.92919187298403,3.2037,4.771293666055046,6.6912660000000015,0.0,1.0
ICl3,mp-27729,2,-1.97125025125,2.4791121385303456,-0.6498588649450001,312.48534402747885,1.8148,6.017291,8.839655158740188,0.0,1.0
RhCl3,mp-27770,12,-3.847635785,3.4898426924280828,-1.066170584945,199.14472262974445,1.5617,6.090913952929068,6.520898549053191,2.0,1.0
Ni(NF7)2,mp-27806,87,-3.341194963529412,2.6163497345063584,-1.0230312618482358,223.8409838901099,2.3579,6.7837555470345485,6.7837555470345485,0.0,1.0
CS14,mp-27814,166,-4.413141546666666,1.5236988932035749,-0.5565656242500002,502.3150127420613,2.6958,7.964158702767103,7.964158840180173,0.0,1.0
PICl6,mp-27824,113,-2.770790910625,2.1339044670864697,-0.9632403685164288,576.7732629670904,1.7963,5.660678,10.094117,0.0,1.0
Rb2SeCl6,mp-27829,225,-2.963477561111111,2.789829761405473,-1.5212458407670837,275.3529861096129,2.696,7.302444464378213,7.302444464378213,3.0,-1.0
Cs2SeCl6,mp-27830,225,-2.975931183333333,3.04639959104064,-1.5526176186406468,303.8774383631276,2.8235,7.546365191189199,7.546365191189199,3.0,-1.0
Tl2TeCl6,mp-27833,225,-2.9217987144444444,4.4567013726869416,-1.2118306310622224,279.10423841983766,2.6503,7.335456451564688,7.335456451564688,0.0,1.0
Na2Te,mp-2784,225,-2.85837295,2.926758699550016,-0.9341711622222224,98.48287287421296,2.2825,5.183525455447481,5.183525455447481,3.0,-1.0
NO2,mp-2789,204,-6.3057501688888875,1.6620160544707734,-0.8244824605155551,275.78769707898647,2.8607,7.102298585147487,7.102298585147487,0.0,1.0
CdBr2,mp-27934,186,-2.281459426666667,4.412564447762295,-0.8825451466666667,204.88325531427398,2.9397,4.073837827745479,14.255037,2.0,1.0
AgClO3,mp-27941,87,-3.902092726,4.138469148530601,-0.5374120487353331,307.0636281159876,2.6499,7.367087862203897,7.367087862203897,3.0,-1.0
K2CdN12,mp-27970,12,-6.758843208666668,2.3401055709454512,-0.1872862816373328,254.5250283216837,2.8975,7.565426382020383,8.98291054303949,3.0,-1.0
BrF5,mp-27987,36,-2.809547825,2.876906453223976,-1.352934956825,201.8985823020005,3.4572,5.039690172317044,7.995674,0.0,1.0
B2H5,mp-27990,14,-4.3831712721428575,0.6584842438154304,-0.16067600806190438,537.8752168822268,6.3475,6.0015339999999995,10.360178999999999,0.0,1.0
HgBrO3,mp-27994,15,-3.3409594945000003,5.519750242286338,-0.4054388322500003,395.28899477700963,3.2228000000000003,9.072439002886544,9.882051832078195,0.0,1.0
AlCuCl4,mp-28020,112,-3.7073398875,2.478892202166845,-1.5639754863399995,311.2752383696847,2.5145,5.555902,10.084060000000001,3.0,-1.0
Hf(BH4)4,mp-28040,215,-4.510966297142857,1.82046839975172,-0.2961785583136506,216.96479290493224,5.9277,6.00892,6.00892,0.0,1.0
PbBr2,mp-28077,62,-3.2390330025,6.128998834593923,-0.9101996191666668,397.73616422631324,3.0529,4.7539419999999994,10.157509,2.0,1.0
Si2H2S3,mp-28090,114,-4.727693347142859,1.6215631455543449,-0.7635403523735721,632.37042262086,3.3657,8.247968,9.295603999999999,0.0,1.0
SBr,mp-28099,41,-2.93173446375,2.434063666298411,-0.3767762603124996,305.54484062594094,2.3074,4.753653857819372,14.258095,0.0,1.0
Co(ClO4)2,mp-28137,148,-4.494772037727271,2.6305908536089886,-0.7031953560472725,651.023453568679,3.1799,8.289112337622527,9.830832338003683,2.0,1.0
Pd(SCl3)2,mp-28174,2,-3.0186202255555554,2.376390823844164,-0.8354016250900003,267.81431765845934,1.6204,4.755114,8.414183290794776,0.0,1.0
Pd(SeCl3)2,mp-28175,15,-2.9640680877777776,2.696789123318644,-0.7757557960274997,587.493800819859,1.7183,7.7090467411960875,9.860330954291747,0.0,1.0
NaSbCl6,mp-28177,84,-3.04245953375,2.479588511725204,-1.4216146191116663,478.78040500098814,2.1828,6.612561,10.949568,3.0,-1.0
K3NO4,mp-28202,62,-4.9733875884375,2.5188825054407875,-1.440096225485,514.9933759518109,3.6559,5.785711,11.014018,3.0,-1.0
Rb3Sb2Br9,mp-28222,164,-3.0062589342857144,3.689068912420775,-1.1539772516071432,548.7280954254685,1.9051,8.050608827998044,9.776178999999999,3.0,-1.0
RbLiBr2,mp-28237,63,-3.20121353375,3.171445281226813,-1.6603860289583332,264.116711791936,4.5748,7.788226,7.9871652716280375,3.0,-1.0
KCuS,mp-28270,62,-3.8769765358333337,2.494129831697512,-0.9827780412083336,358.7464492689945,1.8822,5.314863,10.716253,3.0,-1.0
SiH3F,mp-28289,14,-4.2492829164999995,1.092025319258814,-0.9362680889100006,304.7762004948863,6.0106,4.865885,8.650176743792754,0.0,1.0
CsIO3,mp-28295,31,-4.415701017,4.660253080268665,-1.384418738336207,219.35607471440517,3.0624,4.768978,6.825150999999999,3.0,-1.0
MnBr2,mp-28306,164,-4.958327706666666,3.8257757157706376,-0.8131411898850575,93.20833828558914,1.6107,3.8979627664442873,7.083514999999999,2.0,1.0
LiGaBr3,mp-28327,11,-3.068602771,3.6298214467011936,-1.0990431731666672,578.9317358429157,2.9371,6.6967479999999995,10.620692,3.0,-1.0
GeH3Cl,mp-28369,36,-3.505762826,1.9276906349691385,-0.3865450628239998,191.43509567271846,4.7582,4.814917391823042,8.583061,0.0,1.0
CsGeI3,mp-28377,160,-2.8628169260000003,4.295309949562816,-0.844723311586207,226.6438871133128,2.1992,6.099142968194138,6.099143236327048,3.0,-1.0
KNaS,mp-28383,62,-3.2603180575,2.026941304259492,-1.294304380652778,308.5335514179661,2.4867,4.663247,8.433785,3.0,-1.0
B6P,mp-28395,166,-6.788778045714286,2.5888853219048458,-0.29025854765306136,122.94532136135729,2.7253,5.253135020178331,5.253135298092464,3.0,-1.0
S(ClO)2,mp-28405,43,-4.286642458999999,1.7244144463995619,-1.392237907429,259.940556841354,3.7891,6.189147388297437,9.870939452445445,0.0,1.0
SCl2O,mp-28406,14,-3.789422045625,1.6541210666336237,-1.2328327233487495,477.7280235504931,3.6401,6.1845550000000005,9.45008848653863,0.0,1.0
Ga2TeSe2,mp-28423,109,-3.75247674,4.6438851910840775,-0.5142137619375007,303.9147678894284,1.9166,7.606931336161251,7.606931336161251,3.0,-1.0
RbClO4,mp-28433,62,-4.406539988333333,2.844609592895581,-1.203698834293333,431.78400030719007,5.4971,5.940717,9.472956,3.0,-1.0
Li3AsS3,mp-28471,33,-4.184486837857143,2.3606903694913344,-1.2123644656249997,540.0508399519648,2.2909999999999995,6.696078,9.902696,3.0,-1.0
Sr(ClO3)2,mp-28477,43,-4.672558638888889,2.968779889922507,-1.3757613034096292,284.7259845429793,5.279400000000001,6.993445659915932,8.647642426241386,3.0,-1.0
Ba(ClO3)2,mp-28512,43,-4.7147423944444435,3.1443400375821136,-1.392446217113333,321.32962584844813,5.3105,7.192318498132088,9.04400997303149,3.0,-1.0
Pb(ClO3)2,mp-28513,43,-4.384474925555555,4.2364314344398055,-0.8628813882244444,293.2711928528896,4.3425,7.092918905947043,8.704316652745867,3.0,-1.0
Ba(BrO3)2,mp-28514,43,-4.579918607222221,3.774567145432367,-1.1724945269444444,345.89929009323447,4.3788,7.415480996417223,9.276131984836137,3.0,-1.0
CaInBr3,mp-28534,63,-3.439335072,3.8629472691645272,-1.5057224260000002,339.2549544869205,3.1362,7.509284377608094,10.961292,2.0,1.0
SiH3I,mp-28538,14,-3.5256356514999996,2.2558150778664583,-0.19192832767200016,465.265214211963,4.2096,4.902214,11.041868030017607,0.0,1.0
Ca2IN,mp-28553,194,-4.6416076175,3.9672613585746057,-1.269686476845,185.0599892211766,2.351,3.8179422059620025,14.659637,3.0,-1.0
RbBrF4,mp-28577,140,-3.2890121091666664,2.817200788649683,-1.90573525121,284.5354146535946,3.4059,7.51832365470076,7.51832365470076,2.0,1.0
CsB3H8,mp-28582,63,-4.244404242916667,1.9284529869889293,-0.34011499494925285,298.62356044781126,6.0171,5.755526741216048,9.121367,1.0,1.0
Li3BrO,mp-28593,221,-4.1712416139999995,3.0152889491342982,-1.8493694922500008,64.28198112132081,4.3589,4.005866,4.005866,3.0,-1.0
KNaSe,mp-28595,62,-3.072932825,2.7002912751742425,-1.0992786112256945,346.9489850391492,2.0175,4.854155,8.779207000000001,3.0,-1.0
Na3ClO,mp-28602,221,-3.601742746,2.139339603450312,-1.713048126902,93.47041022028921,2.4613,4.538281,4.538281,3.0,-1.0
NaLiSe,mp-28603,62,-3.4092627641666664,3.0149992002600943,-1.169433910503472,239.89044689095584,2.4337,4.279939,7.7768190000000015,3.0,-1.0
Na3BN2,mp-28630,14,-5.060572435,2.1182913332107915,-0.6391903023211102,338.0000856268901,1.6631000000000002,5.742368,7.982228,3.0,-1.0
KSiH3,mp-28695,62,-3.4719723075,1.4023476255584535,-0.2209877172719992,332.5352249563117,2.5734000000000004,5.421335,8.890044,3.0,-1.0
Pt(SCl3)2,mp-28722,2,-3.1126376922222216,2.8596984000515864,-0.8304162139788889,274.0364238286578,1.8451,4.894851,8.399101992277505,0.0,1.0
KRbS,mp-28760,62,-3.0919174416666664,2.5794239544349264,-1.2372764795416664,403.3335584828427,2.2219,5.051394,9.556707000000001,3.0,-1.0
Na4SnSe4,mp-28768,114,-3.5066673072222216,3.465022989350418,-0.9231310147453704,504.63670467085336,1.4647,7.343344,8.289769999999999,3.0,-1.0
Na3PS4,mp-28782,114,-4.117104263125,2.1505362228532188,-1.2109540157589294,352.4145360217279,2.552,7.019335000000001,7.152566,3.0,-1.0
P4N3Cl11,mp-28792,146,-4.306326393333333,1.7984123288543123,-1.0117196848492067,513.2808405470886,2.6579,8.032381696740513,8.03238204550761,0.0,1.0
Si3CCl8,mp-28813,2,-4.366997797083333,1.7834762103378898,-1.4058702492566668,707.4096923760375,4.5636,9.04004,9.635842379257664,0.0,1.0
RbBrO3,mp-28872,160,-4.133029842,3.606917889625045,-1.0621384382499997,98.23046475761996,4.1801,4.6256345130745045,4.625634715111538,3.0,-1.0
CsBrO3,mp-28873,160,-4.124534756,3.944049284522914,-1.0706696923362071,109.8062583922682,4.3148,4.792840063611972,4.792840125958824,3.0,-1.0
BaCN2,mp-28898,167,-7.693270806249997,3.524612822128275,-0.9305968299399996,501.3289883170582,2.2874,9.121356485604597,9.1213569037214,3.0,-1.0
BaReH9,mp-28911,194,-4.355891056363636,4.770496751238976,-0.3994248775072726,231.55004138762737,3.8357,5.2541205243507685,9.685325,3.0,-1.0
Ca2Si5N8,mp-28922,9,-7.736974506666668,3.0014700805332213,-1.4198046826026665,368.0575749416784,3.3668,7.747422876925268,9.753143942441175,3.0,-1.0
P4N6O,mp-28950,58,-7.498002627272728,2.540133270444209,-0.8058533508923372,292.78167070682184,4.5093,6.1626650000000005,6.907404,3.0,-1.0
Li6MgBr8,mp-29008,225,-3.28004561,3.458022302741607,-1.5367636386666668,338.62821522978675,4.8595,7.823709441333313,7.823709441333313,3.0,-1.0
Li2MgBr4,mp-29009,65,-3.2375057471428565,3.488523196317016,-1.5281011838095242,170.31443571134778,4.5276999999999985,3.890538,6.81632800704793,3.0,-1.0
Li5Br2N,mp-29025,71,-3.62643473,2.4516726346656523,-1.0300672798808337,141.2321951592581,2.142,6.940726494369737,6.940726494369737,3.0,-1.0
P3BrCl14,mp-29033,79,-2.990701756111111,2.1332478191249367,-1.0223296561863495,520.8857642003842,1.602,9.019977268990926,9.019977268990926,0.0,1.0
Li4NCl,mp-29149,166,-3.8317522183333335,1.6644224483032035,-1.0247497798288887,77.04352392514626,1.8501,6.9712154327394735,6.971215519597712,3.0,-1.0
Li5NCl2,mp-29151,166,-3.79562980875,1.7832979551292885,-1.2950312494458331,111.383441749328,1.9859,9.859445632851576,9.859446314640698,3.0,-1.0
KNO2,mp-29200,14,-5.783305745,1.8599163304118167,-1.3947552269699992,303.92374604253916,2.5629,4.5616,9.72633,3.0,-1.0
CsSrN9,mp-29228,15,-7.2217275427272725,2.995961471552927,-0.4801699687288822,384.19665033847747,3.8236,6.974958977493488,9.1210307148131,3.0,-1.0
TeSeO4,mp-29299,9,-5.2938298758333335,4.557687851584143,-1.3568508287239591,197.1488523108839,2.9645,4.476254043299263,7.618048438861821,3.0,-1.0
GaCuCl4,mp-29362,112,-3.3257754658333334,2.8687835049039543,-1.3019911192566669,318.45048341818836,1.8316,5.578953,10.231434,3.0,-1.0
Na3BP2,mp-29370,14,-3.91151713875,1.6867849048507435,-0.33653044813492033,558.0903668702441,1.8451,7.0091800000000015,9.305519,3.0,-1.0
Na5InS4,mp-29376,11,-3.6044811864999997,2.477971268866034,-1.282790758416667,479.84217800140993,2.022,6.883949,8.853398,3.0,-1.0
GaCuI4,mp-29403,82,-2.618843178333333,4.386591441764292,-0.4149510729166668,242.60697984751386,1.8391,7.347994247551028,7.347994247551028,3.0,-1.0
Li2B2S5,mp-29410,63,-4.923710241111111,1.7698140802671327,-1.0857570622916672,367.4755540696444,2.4672,7.0059520000000015,8.62645713038516,3.0,-1.0
Cd3PCl3,mp-29415,164,-2.7000255485714284,4.122861068164101,-0.99381010976449,382.2757907400006,1.8315,7.257303,7.798937627141597,3.0,-1.0
PI2,mp-29443,2,-2.881897411666667,3.3323309636323595,-0.06146038119047624,283.8210293778478,2.0584,5.2043029999999995,7.739943935549986,0.0,1.0
Rb2IN3,mp-29456,127,-5.3357454,3.3567992673688454,-0.7786625128566668,336.2435728298235,3.9538,6.386635,8.243464999999999,3.0,-1.0
LiBeN,mp-29463,14,-5.535762273333333,1.9285630092214072,-1.002159633571111,103.1847116300563,2.6955,4.550308,5.800670470282553,3.0,-1.0
LiIO4,mp-29473,14,-4.530573020833333,3.553146884954736,-1.1279734613888879,369.842460701158,2.1026,5.385909,8.695856,3.0,-1.0