pretty_formula,task_id,spacegroup.number,final_energy_per_atom,density,formation_energy_per_atom,volume,band_gap,min_abc,max_abc,Dimension,Dim
BaSrI4,mp-771640,14,-3.3067216147916665,4.097720074248817,-1.6893045242361109,2374.8866784798865,3.4689,10.938733000000001,21.008119060084294,3.0,-1.0
Ba3YI9,mp-771922,62,-3.6202252940384616,4.523721076472083,-1.6248793603205132,2412.448166189284,2.8353,8.261892,20.415974,3.0,-1.0
Sr3YI9,mp-771936,7,-3.5038346121153845,4.669009688637804,-1.561447811474359,2125.2381752028555,2.5314,7.7141699999999975,32.985263431752266,3.0,-1.0
Ba3YI9,mp-772018,7,-3.6341572336538457,4.723487477195858,-1.6388112999358977,2310.420567001405,2.6721000000000004,7.9860880000000005,33.67320558775063,3.0,-1.0
BaYI5,mp-772077,14,-3.8108561603571434,4.415582038187738,-1.5243554434523807,2589.5886413483513,2.9223000000000003,8.270669999999999,27.056649,3.0,-1.0
Ba6Sr11I34,mp-772883,2,-3.2676052627450978,3.951121075758604,-1.6614376612418298,2564.714136758865,3.3618,11.953844,15.591508596344454,3.0,-1.0
Ba3(YI6)2,mp-776463,14,-3.7281969794117646,4.571573649019132,-1.5530201501960783,3069.5178954250946,2.6277,13.844870000000002,20.59209210729228,3.0,-1.0
BaYI5,mp-776479,14,-3.800690461607143,4.417625867930243,-1.5141897447023809,2588.390559291547,2.7575000000000003,11.742242999999998,20.307581555924575,3.0,-1.0
Ba3(YI6)2,mp-776579,14,-3.7255509717647057,3.7328482938991874,-1.55037414254902,3759.2010232112043,2.8015,14.274782,22.84820395084097,3.0,-1.0
Ba6YI15,mp-776610,14,-3.4992026259090907,3.271277454790352,-1.6428169296212118,5718.622458192423,3.1662,13.305492999999998,24.99120893250073,3.0,-1.0
Ba6YI15,mp-776782,15,-3.5368537917045457,3.7699361109774654,-1.6804680954166669,4962.206299854846,2.9551,12.016374602524754,34.384862031263836,3.0,-1.0
Ba3Y2Br12,mp-777292,14,-4.2671417485294105,3.5129594985103934,-2.012260972254902,2928.104788645814,3.7772,12.875328,20.60916274609556,3.0,-1.0
Ba6YBr15,mp-777731,15,-4.040373512954545,3.417562432446541,-2.107001049621212,4103.636437415208,3.8412,11.262114500219974,32.374022130133575,3.0,-1.0
Ba6YCl15,mp-777883,15,-4.491734915454545,2.6290586219314425,-2.8195503361621213,3649.852582942142,4.6931,10.844002589335961,31.055946401653404,3.0,-1.0
Li2Sn2(SO4)3,mp-777931,61,-5.947722716973684,3.122530107422861,-2.0948835238706143,2295.1743826011484,3.7253,9.209099,26.6145,3.0,-1.0
Ba14Na8CaN6,mp-777942,176,-3.3948321143103444,2.9988509481922656,-0.3912720329636777,2470.294350552547,0.0,11.471382668125148,21.676370000000002,3.0,-1.0
Rb19O3,mp-779582,226,-1.8787014831818185,1.7938410945079168,-0.4529222202840909,3095.2938815116217,0.0,16.358329898335953,16.358329898335953,0.0,1.0
NaCaFe3(PO4)4,mp-850003,61,-7.0205987327,3.2583469073476445,-2.615996665404764,2488.966493301064,2.2436,8.81680286,29.60666731,3.0,-1.0
CoPO4,mp-850025,170,-6.724891385138887,2.657197623708058,-2.1198471299007933,2308.277205844844,1.1979,10.382097469490498,24.727892999999998,3.0,-1.0
LiMg149,mp-866755,187,-1.6297007654,1.7440503530058116,-0.027363096622222163,3454.646072185067,0.0,15.657749000000033,15.9580028379582,3.0,-1.0
CsMg149,mp-978251,187,-1.5728619999333333,1.7915086515711225,0.02271886554712637,3479.885843487268,0.0,15.79410256,15.95033485,3.0,-1.0