pretty_formula,task_id,spacegroup.number,final_energy_per_atom,density,formation_energy_per_atom,volume,band_gap,min_abc,max_abc,Dimension,Dim
BN,mp-984,194,-8.7888233775,1.9562409487548509,-1.4728913982733332,42.13260173230655,4.4938,2.5124284562400976,7.707265,2.0,1.0
Ca7(H6Cl)2,mp-984055,174,-3.609600420476192,2.17574329087794,-0.9703746561885712,277.46125359879875,3.6964,3.6835690000000003,9.326129567856649,3.0,-1.0
CsGaH4,mp-984550,137,-3.1106000608333333,2.8476502509234614,-0.29685930748517225,241.01790959792118,4.625299999999998,5.563871,7.785655999999999,3.0,-1.0
RbCaSb,mp-9846,129,-3.17124886,3.273907511038212,-0.7995371291666663,250.8689942597301,1.5076,5.411582,8.566403,3.0,-1.0
Ca(BH4)2,mp-984766,77,-4.201633428636364,1.1468577774813355,-0.4486991820266665,202.02165021358243,5.2954,4.361319,6.805969999999999,3.0,-1.0
Li6PS5I,mp-985582,216,-4.0576169269230755,2.1538960242155563,-1.3071719260920334,277.42458368649943,2.0261000000000005,7.320711860963386,7.320711860963386,3.0,-1.0
Na3PS4,mp-985584,217,-4.11134056125,2.187223025455124,-1.2051903138839286,173.2517023537265,2.5533,6.08274766188176,6.08274766188176,3.0,-1.0
Na3BrO,mp-985586,221,-3.4936870960000004,2.8098611896109063,-1.5283773642500005,97.4345542038535,2.3358,4.601552,4.601552,3.0,-1.0
Li6PS5Br,mp-985591,216,-4.086436333076923,1.8987672238397149,-1.327305645707418,273.5973028794492,2.1315,7.286890943619232,7.286890943619232,3.0,-1.0
Li6PS5Cl,mp-985592,216,-4.11100388,1.6412406307296594,-1.381340543650495,271.55370202531924,2.1394,7.268702742993553,7.268702742993553,3.0,-1.0
H2C,mp-985782,62,-5.5052453425,1.025447100436641,-0.2698273349133332,90.85474638671269,6.43,2.5630759999999997,7.1788289999999995,0.0,1.0
Si3N4,mp-988,176,-8.182154780714287,3.1341768773774006,-1.3127503792171424,148.64885368977068,4.2577,2.9250849999999997,7.660307715239448,3.0,-1.0
GaS,mp-9889,166,-4.2278834225,3.392026074169878,-0.9773407378125,99.65899248132715,1.9484,8.949453913218672,8.949454532372908,2.0,1.0
Rb2NaSbCl6,mp-989545,225,-3.3595343189999998,2.7493009015737164,-1.8667515727893336,319.14820131556263,3.1339,7.67071416130154,7.67071416130154,3.0,-1.0
Cs2NaAsCl6,mp-989608,225,-3.344876725,3.1326202925685056,-1.8161086023755408,305.55940510303,3.1542,7.56026266786664,7.56026266786664,3.0,-1.0
Cs2NaAlH6,mp-989642,225,-2.934086783,3.330576687851367,-0.30514150709154003,160.45600855312682,2.1846,6.099445111759103,6.099445111759103,3.0,-1.0
K3SbS4,mp-9911,217,-3.87918658,2.5016863997113092,-1.2101668864375004,243.81183079728083,2.4089,6.816459972425204,6.816459972425204,3.0,-1.0
LiBeP,mp-9915,129,-4.272328943333333,1.9947325807652352,-0.5851217456349206,78.12979498059497,1.8087,3.606092,6.008182,3.0,-1.0
PbBrCl,mp-995147,129,-3.3857439116666668,6.128667435404393,-1.1846023827533332,174.7911778051811,3.2852,4.703055,7.902407000000001,2.0,1.0
Cs2RbInBr6,mp-996941,225,-2.954628772,3.665433094488842,-1.4201705933362068,428.346126218948,2.5058,8.461290655366474,8.461290655366474,3.0,-1.0
TlGeBr3,mp-998153,8,-3.059434652,5.000708812528363,-0.6803425609999998,171.58750587347944,2.0702,5.551330212903751,5.560484490478145,3.0,-1.0
RbSnBr3,mp-998157,1,-3.153089154,3.6483434284268283,-1.1729120445,202.03590167033641,2.2693000000000003,5.864902,5.870762757099455,3.0,-1.0
RbPbBr3,mp-998176,8,-3.1629537020000003,4.126661790570243,-1.2421615495,214.2258079372513,3.093,5.980424007898855,5.9850843629225485,3.0,-1.0
KGeCl3,mp-998231,8,-3.5190591400000004,2.3670398921308373,-1.6200631935560004,153.00083795544327,2.5104,5.335108327419042,5.356161585232656,3.0,-1.0
InGeCl3,mp-998233,8,-3.393872344,2.8146712194019576,-1.166619440956,173.3398215635561,2.7338,5.549692736190896,5.647701176184517,2.0,1.0
RbCaI3,mp-998325,8,-3.05348973,3.5114763361956562,-1.5418553705000002,239.40448846704484,3.8858,6.207693176575337,6.210137720178032,3.0,-1.0
CsCaI3,mp-998333,8,-3.089924766,3.7958312416095983,-1.5953167465862068,242.2223781078566,3.9901,6.231499103546192,6.234632615971048,3.0,-1.0
InSnBr3,mp-998398,1,-3.051354704,3.7324072606655,-0.7169476629999998,210.54334454854407,2.234,5.932798,5.985729786045308,3.0,-1.0
KGeBr3,mp-998412,8,-3.17460829,3.3226784128916846,-1.0457670056,175.64051665487327,2.1307,5.592046520467797,5.605409015064021,3.0,-1.0
CsSrI3,mp-998417,8,-3.066343324,3.6866164653866433,-1.6349590299195402,270.812173687388,4.0996000000000015,6.464808662825838,6.472272848499667,3.0,-1.0
InPbCl3,mp-998535,8,-3.400679058,3.725507596321793,-1.355502311956,190.93686574017812,3.0523,5.757001592790903,5.7595891828514985,3.0,-1.0
InSnBr3,mp-998555,161,-3.073406615,4.00386388952432,-0.7389995739999999,392.5375734843699,1.7534000000000003,8.259505922624308,8.259506711230943,3.0,-1.0
InSnCl3,mp-998560,8,-3.3767027579999995,3.04198558387436,-1.2721410549559995,185.53527824765155,2.4702,5.669548063170557,5.776513428212731,3.0,-1.0
InSnCl3,mp-998567,148,-3.3967795919999997,3.0567349977268257,-1.292217888956,369.2800600308455,3.0492000000000004,8.133889658462918,8.133889767558077,0.0,1.0
InGeCl3,mp-998569,161,-3.403792247,2.844327916870299,-1.176539343956,343.0649497460598,3.2936,7.8265506907490865,7.826550709820514,0.0,1.0
LiSnCl3,mp-998591,161,-3.612078929,2.9664751638001454,-1.6760693986226662,259.74373461352957,3.4153,7.332472342575933,7.332472782824223,3.0,-1.0
RbPbBr3,mp-998603,63,-3.212814897,4.581313970196659,-1.2920227445,385.9318361150201,2.8230000000000004,7.865184316243327,11.342922999999999,3.0,-1.0
KGeBr3,mp-998612,11,-3.19983665,3.1512747994994075,-1.0709953656,370.3878526944058,2.9211,5.987584,8.623577463995902,3.0,-1.0
KGeCl3,mp-998613,161,-3.5471182370000003,2.265752526615854,-1.6481222905560002,319.6810620009801,2.9285,7.672668058248643,7.672668106547098,3.0,-1.0
TlGeCl3,mp-998743,11,-3.4236786230000003,3.9214048343885737,-1.2744318699559998,324.69041758205674,3.4586,5.743545,8.347123341651184,0.0,1.0
TlGeCl3,mp-998744,8,-3.3909213800000004,4.214938328785888,-1.2416746269560002,151.03928858108338,2.4098,5.321929695849524,5.3281037089900005,3.0,-1.0
KCaBr3,mp-998749,8,-3.5040310439999995,2.829701269335993,-1.8986753546000001,187.1315837363699,3.9584,5.716306996816826,5.721591970923915,3.0,-1.0
K2O2,mp-998917,189,-4.068644604166667,2.424542543136853,-1.2725773962916662,226.4143813573228,2.1962,5.122959,7.14375001880567,3.0,-1.0
K2O,mp-998929,143,-3.3490503966666667,2.4706420258081736,-1.1935626090833331,189.9297465398147,1.8534,4.364079,7.088998558259831,3.0,-1.0
Al2CdS4,mp-9993,227,-4.5122081028571435,3.5051103673627617,-1.3256365474999998,279.16461638287996,2.6878999999999995,7.335985367437019,7.335985367437019,3.0,-1.0
N2,mp-999498,199,-6.84306684,3.3794965657572367,8.881784197001252e-16,27.529156596653863,4.0173999999999985,3.2946169795155247,3.2946169795155247,3.0,-1.0
ZnCr2O7,mvc-7383,4,-6.225146327,2.9419991798706504,-1.5991966438750005,317.65522908445166,2.4238,6.196733,7.620526487466991,3.0,-1.0