pretty_formula,task_id,spacegroup.number,final_energy_per_atom,density,formation_energy_per_atom,volume,band_gap,min_abc,max_abc,Dimension,Dim
SbCl4F,mp-23412,82,-3.223204652083333,2.501005379454184,-1.462378771955,750.4489153572557,1.3854,10.374454615950516,10.374454615950516,0.0,1.0
Sb4Cl2O5,mp-23419,14,-5.353709433636364,4.6172822636187565,-1.6944335920700004,458.8540241998388,2.6466,5.226808,13.822305389429436,2.0,1.0
Cs4PbBr6,mp-23436,167,-3.1436967427272724,4.0006078358326445,-1.5877134883385582,1011.3186991848364,3.9993,10.038214451215964,10.038214682137458,3.0,-1.0
Cs3Cr2Br9,mp-23451,194,-3.907785625,3.976185327535978,-1.2845969881280792,1020.5362431180647,1.3530000000000002,7.789563732913674,19.420997,3.0,-1.0
CsSn2Br5,mp-23467,140,-3.201889608125,4.2731862195149395,-1.0644922603663796,598.3162831922598,2.4626,10.100794375458596,10.100794375458596,3.0,-1.0
CsIO4,mp-23489,62,-4.41385803,3.894188893456577,-1.1801785529885056,552.3050420870711,2.5559,6.026924,14.835208999999999,3.0,-1.0
CsAg2I3,mp-23496,62,-2.5642543541666667,4.675123477887295,-0.7088289835440612,1036.2275234386198,2.7876,6.08929,14.578492,3.0,-1.0
Li2ZnI4,mp-23497,62,-2.539125258571429,4.234199919494186,-0.9428910009523812,920.6793654569568,3.1982,7.063932,15.008963,3.0,-1.0
Sr2InI5,mp-23504,140,-3.07170478625,4.720867001867265,-1.3528661222916667,650.4321306990588,3.0675,10.062035836598527,10.062035836598527,2.0,1.0
RbPbI3,mp-23517,62,-2.8615793275000003,4.866516604433713,-1.0085355300000003,919.0769470718733,2.4576,4.8634699999999995,17.784373000000006,3.0,-1.0
MoCl3O,mp-23528,14,-4.5280290745,2.6122073837017106,-1.4636567887060004,555.075410379694,2.4827,6.222478,14.274816,1.0,1.0
AsSe6IF6,mp-23569,13,-3.848443546785714,3.794681864162699,-1.2997363547287502,691.0316349667293,1.5792,7.167808,11.95419588975624,1.0,1.0
KBiP2S7,mp-23572,14,-4.5518537577272715,3.084146401755438,-0.9029506624561686,1151.0827790937833,2.3761999999999994,9.238197999999999,12.744124000000001,3.0,-1.0
AsSe3(ClF2)3,mp-23575,14,-3.7278211965384616,2.8692720140641983,-1.617689921842404,1231.890949873302,1.9584,8.117131,12.627654200142837,0.0,1.0
SIO3F,mp-23598,19,-4.813516620416666,3.0597216088462065,-1.6210917834274998,981.0709345319541,1.9303,5.7204489999999995,13.712734,0.0,1.0
RbLi2(IO3)3,mp-23626,14,-4.5829965475000005,4.037165067443927,-1.4109027561944452,1026.7327255736323,3.8084,8.420242,11.44876547554862,3.0,-1.0
RbMgH3,mp-23738,194,-2.77746948,2.5686465553665667,-0.3174646586720001,437.51413062052484,2.5466,5.92870599344486,14.372808,3.0,-1.0
Cs3MgH5,mp-23947,130,-2.5578319325,3.113348525783669,-0.2817018799325671,913.2445018515468,2.6053,8.433291,12.840824000000001,3.0,-1.0
Rb3MgH5,mp-23948,130,-2.578461878055556,2.3629324893122026,-0.2739545920111108,803.2322301257768,3.0927,8.071563000000001,12.328942999999999,3.0,-1.0
K(BH)5,mp-24270,14,-4.980425533863637,1.294078906087697,-0.3707854331303024,1007.996107808307,4.6289,6.812088,14.50182434572054,3.0,-1.0
GaS,mp-2507,194,-4.23401483375,3.4058068602325102,-0.9834721490625,198.51149222189514,2.0109000000000004,3.6269178913631337,17.425272,2.0,1.0
Mg3P2,mp-2514,206,-3.7921112875,2.0380354844011133,-0.6666289129285715,879.060218279123,1.6067999999999998,10.452339458454409,10.452339458454409,3.0,-1.0
P4S7,mp-2650,14,-4.779307948181818,1.6967919896185686,-0.6007559014691553,1363.629406774882,2.7761,7.5033119999999975,18.731907,0.0,1.0
Al2S3,mp-2654,169,-5.036638124666665,2.2877925200438542,-1.4546138725416669,653.9317298354288,3.2438,6.610146555361236,17.281428,3.0,-1.0
KAuCl4,mp-27181,7,-2.8757051291666667,3.3682413539902445,-1.3090910635066668,745.1714261457379,1.4257,6.586882000000001,12.513309749755578,3.0,-1.0
Cd(NO3)2,mp-27198,29,-5.792847611805558,3.2816657496097466,-1.0926446176122226,957.0407336055143,3.4723,7.753992999999999,15.901289000000002,3.0,-1.0
B13H19,mp-27200,14,-4.781613848203125,0.8475502746725434,-0.1445172986077079,1251.5028365891533,2.7671,6.684869,20.203820450383336,0.0,1.0
B9H8S,mp-27202,14,-5.171262688194443,1.0847410788152438,-0.19873996067138847,841.5050199267737,4.1569,6.809774000000001,13.625623686204241,0.0,1.0
K2SbCl5,mp-27241,14,-3.38931681875,2.5165184794268822,-1.8119350665375,995.6472939678384,3.2523,9.074705999999999,12.768406,3.0,-1.0
BSBr,mp-27245,14,-4.663958106111111,2.0452189085764148,-0.7341887135416667,1196.2395951388526,3.6628,4.8207379999999995,18.72882406599189,0.0,1.0
TlCdI3,mp-27252,62,-2.179846484,5.955839094947377,-0.6085303670000002,777.8845487563913,2.4254,4.497421,16.637704,1.0,1.0
Tl8Ge5O14,mp-27271,167,-5.402636818518518,6.4815554562826385,-1.6453153489814818,1138.6606964806524,2.218,14.88213845274734,14.882138609887626,3.0,-1.0
Ca3PI3,mp-27272,214,-3.807322118571428,3.6682277556051024,-1.5213044976530612,963.1636259313514,2.1548,10.775579976315337,10.775579976315337,3.0,-1.0
TlPb2Cl5,mp-27283,14,-3.509918319375,5.652095403746244,-1.5028930689125002,935.4897301799778,3.4393,8.092396,12.782977412205383,3.0,-1.0
K3GeTe3,mp-27331,15,-3.2836965507142857,3.4497090798508845,-0.8002497669999998,1102.7581216168564,1.056,9.838094159697599,10.672771427856262,3.0,-1.0
Cs3MnBr5,mp-27332,140,-3.732418665,3.6824274758834608,-1.5065801887164751,769.4540800945447,2.715,10.498527966585982,10.498527966585982,3.0,-1.0
Cs3HgCl5,mp-27354,62,-2.8943853552777785,3.6800547259661416,-1.865591759177012,1401.6390191630414,2.9583,9.176963,13.951343,3.0,-1.0
Se2O5,mp-27358,14,-5.064383666428571,3.2650123763797256,-1.032933623705358,484.00487050689804,3.0247,4.856602,14.019350867316401,1.0,1.0
CsSnI3,mp-27381,62,-2.84879671,4.449103949605023,-0.9533942955862068,944.0164042171973,2.0701,4.83229,18.147277,3.0,-1.0
AgIO3,mp-27384,29,-4.143026988,5.655834880740223,-0.7243139830833328,664.1665981168334,2.4582,5.897216,15.511621,2.0,1.0
CsSnCl3,mp-27394,14,-3.5332195680000003,3.144983915338748,-1.7999141365422069,756.036378215494,3.1375,5.848003,17.103945414304533,3.0,-1.0
TlBr2,mp-27398,52,-2.53495210375,5.039757483011759,-0.6564500837499999,959.9729882310758,1.807,8.156797000000001,10.906239999999999,0.0,1.0
SbBr3,mp-27399,19,-2.868140784375,3.0927123829694905,-0.6081955693749999,776.3261540741295,3.4534,4.4630730000000005,14.099441,0.0,1.0
RbCdBr3,mp-27400,62,-2.6102225569999997,4.305013734618374,-1.2473818665000005,675.1538214538692,2.7555,4.313389,16.074114,3.0,-1.0
GaTeCl,mp-27449,58,-3.3929471941666667,3.904090200967616,-0.9178647244200002,396.0294172210266,2.1714,4.161416,15.905998,2.0,1.0
Tl3PbBr5,mp-27451,19,-3.0069514075,6.412436607768012,-0.8978137730555559,1263.5706200451648,3.0874000000000006,8.716192999999999,15.686876000000002,3.0,-1.0
Al2PdCl8,mp-27452,14,-3.726425775909091,2.01498083320928,-1.6626220228254551,731.8095392135235,1.6806,6.907935,14.04285005970355,0.0,1.0
S8O,mp-27465,29,-4.346976481666667,1.71080477092297,-0.7881337701388892,1058.0496800047029,2.4236,8.532975,14.212353,0.0,1.0
Li5TlO4,mp-27483,137,-4.7829557273750005,4.665816674379055,-1.8940628085416664,862.9331370849028,1.66,4.790538,13.421357,3.0,-1.0
Tc2O7,mp-27485,61,-7.415716229166668,3.11207188213836,-1.8111719956944456,657.3614975722237,2.6726,5.891361,14.269104,0.0,1.0
BaTeS3,mp-27499,62,-4.382625464,4.07383413664452,-1.2863771918750004,588.7890068127738,1.949,7.007275999999999,11.210331,3.0,-1.0
K3W2Cl9,mp-27506,176,-4.580918557142859,3.422469180592009,-1.6857679448814291,780.2317689785623,1.3417,7.433328101617539,16.30521,3.0,-1.0
Ca(IO3)2,mp-27535,14,-4.930233225833334,4.374860296403236,-1.5382756788888894,591.9425751892097,3.5872,7.256925999999999,11.464799000000001,3.0,-1.0
As4S3,mp-27543,62,-4.5462139564285735,2.7805655930113518,-0.3954363534821432,945.673113545741,2.3035,8.866848,10.944586,0.0,1.0
Cs3Bi2Br9,mp-27544,164,-3.0632902335714287,4.332278100414439,-1.263389190985222,588.6689831370961,2.5988,8.215988584404252,10.069801,3.0,-1.0
Na8Fe2O7,mp-27557,14,-4.776847735588237,2.8449231714314864,-1.7350311606127458,951.6493049977028,2.1192,8.791261,11.123075,3.0,-1.0
CsFeCl4,mp-27570,62,-4.066123594166666,2.5611975657889787,-1.6693220676618392,857.2737576563184,1.369,7.3821759999999985,11.865564,3.0,-1.0
Te5(O2F11)2,mp-27575,88,-4.291687448870968,3.5522774861171773,-2.228743272457419,1047.0699107787548,2.8665,12.575136770920349,12.575136770920349,0.0,1.0
Zn3(AsO3)2,mp-27580,55,-5.280783187045454,4.031314828221928,-1.7742867822727275,728.3666898948775,3.5393,6.267164,14.588607999999999,3.0,-1.0
Na8Ga2O7,mp-27618,14,-4.609466945441177,3.080105485468061,-1.8863453560539225,938.8408487430091,2.2590000000000003,8.736759,11.102867,3.0,-1.0
Na2PbO2,mp-27622,60,-4.558806518,5.18686988113508,-1.5921500298333335,730.3823430763694,2.4078,6.056671,17.171609,2.0,1.0
Na6PbO4,mp-27623,217,-4.0516663984090915,3.7672743906698622,-1.4531916488636365,721.3561840678359,1.3501,9.785669638519533,9.785669638519533,3.0,-1.0
TiBr4,mp-27634,14,-4.1196592225,2.6587863181411326,-1.2310195871666672,918.0427530377813,2.7916000000000003,7.4417839999999975,11.21976926073794,0.0,1.0
Cd(IO3)2,mp-27640,19,-4.309018554166666,5.1355509054477135,-1.037362131666667,597.8157388931231,3.2733,5.7040169999999994,17.689443,2.0,1.0
CsBr3,mp-27641,62,-2.43307658625,3.5516467054285883,-0.9815310882327586,696.855162796639,2.3245,6.871084,10.277337,3.0,-1.0
RbB10H9,mp-27650,33,-5.106935811625,1.5205428277705215,-0.26033172496233303,1770.457270399836,4.4008,7.300889,19.067215,0.0,1.0
Zn2(PS3)3,mp-27656,12,-4.35668163,2.3552295989527194,-0.7840920867028071,722.4217053396753,1.8233,7.1288640955810765,10.852228576995973,2.0,1.0
CsI2Br,mp-27662,62,-2.32032573,3.9895464472828737,-0.9252371944827588,776.8683274478294,2.1123,6.9721100000000025,11.045498,3.0,-1.0
TiPCl9,mp-27664,2,-3.767952934090909,2.0606996393844645,-1.5321859642040692,641.2948073232162,2.1747,7.2772710000000025,9.863074788656226,0.0,1.0
Rb4In2S5,mp-27670,2,-3.7399370204545455,3.3117319910368845,-1.304441285511364,733.8975264815082,2.0975,7.7602949999999975,11.021837581394944,3.0,-1.0
K2TeI6,mp-27688,14,-2.3700100727777778,3.934886535325116,-0.7579906823333332,816.3448987012565,1.8184,8.209457,14.273618139036296,3.0,-1.0
Sb4Br2O5,mp-27700,14,-5.256329949545455,4.972065192346587,-1.527404005568182,485.49424481429605,2.381,5.2472769999999995,13.815801183388714,2.0,1.0
Pd(S3N)2,mp-27722,14,-5.0349385375,2.043654575404596,-0.3768534945566668,1062.2206513967185,1.237,8.55129,13.124846660286588,0.0,1.0
CCl2O,mp-27727,88,-5.0399871621875,1.5590507416570836,-1.0449501316300005,842.8413212061588,4.5842,12.266913990491377,12.266913990491377,0.0,1.0
GaSbCl6,mp-27735,14,-3.2808252928125,2.3794370425727545,-1.4457999674450002,1128.3199164337864,3.9056,7.931724000000001,13.650600398103519,1.0,1.0
Be(B3H7)2,mp-27748,14,-4.428831500476192,0.7137675534682316,-0.18254213146095194,818.8085273726649,4.2788,8.640385,13.083325533293323,0.0,1.0
K2Sb4S7,mp-27749,15,-4.218609927307694,3.4785987130244047,-0.9072459332980768,753.9321781820372,1.5528999999999995,6.625728084482338,17.812846807234934,3.0,-1.0
Na6Ge2S7,mp-27752,15,-3.997619905,2.357191957890848,-1.2346266997916673,715.2679009417785,2.4467,7.000591365229655,15.242100877457972,3.0,-1.0
K4I2O9,mp-27764,194,-4.481652620666667,3.41435122292716,-1.4349452715500002,539.0572189368435,1.9410000000000005,6.293574896685112,15.714822,3.0,-1.0
SbAs2Cl13,mp-27786,36,-2.9527158421875,2.2333989268833814,-1.0935095454612502,1089.2204696964934,1.1842,9.879186871544084,12.183042,0.0,1.0
NbPCl10,mp-27787,2,-3.777184689583333,2.0931870036423748,-1.4394263005142858,759.0518470316106,2.2867,7.3478210000000015,14.176403754128726,0.0,1.0
TaPCl10,mp-27788,2,-3.98712106875,2.468375204930632,-1.5029899638476192,762.1329844845459,2.3387,7.3582100000000015,14.187009875266492,0.0,1.0
B4H5,mp-27798,14,-4.930377751458334,0.8821485740648632,-0.1619054858768515,1454.2125440034838,2.8856,6.116798,17.019605140735784,0.0,1.0
BaSn2S3,mp-27802,11,-4.733141619166667,4.638070406567915,-1.3402942623958345,1011.6503466553656,1.3520999999999992,6.24477,13.664598000000002,3.0,-1.0
Ba3SiS5,mp-27805,62,-5.2658422797222215,3.958012475399008,-2.0939338525694446,1007.5496701450585,2.8128000000000006,8.693005,12.134164,3.0,-1.0
Te6Cl2O11,mp-27808,63,-5.030281967368421,5.166652772394548,-1.4476594573826314,650.8255470900721,2.9285,6.904345177906809,15.680209,1.0,1.0
B7H10,mp-27820,19,-4.7956957269852944,0.8912155211133224,-0.13963049112450926,1278.2708472858305,2.5117,9.178875,13.549423,0.0,1.0
CaSe2O5,mp-27845,61,-5.7022775909375,3.61467419108644,-1.924058818554688,1021.6612251423307,3.478800000000001,6.6224880000000015,14.882145999999999,3.0,-1.0
MoS2Cl3,mp-27866,14,-4.785297279166667,2.7999042577684237,-1.193101330171667,632.0441304343527,1.4427,6.2529959999999996,14.3665687857959,1.0,1.0
B2H3,mp-27876,61,-4.751637403625,0.8233614718583354,-0.1360386984636662,1590.5664119462933,3.074,10.681638000000001,13.915479999999999,0.0,1.0
Nb3Cl7,mp-27880,64,-5.5721777325,3.40718211953668,-1.6640905367820005,1027.1498623564248,0.9757000000000002,9.533830521097226,11.305207000000001,2.0,1.0
Cd3AsCl3,mp-27899,62,-2.5982456778571428,4.275786163529482,-0.9997684471114284,805.4772212019851,1.4525,7.2246169999999985,13.468176999999999,3.0,-1.0
Ge2S3I2,mp-27928,147,-3.8515154564285714,2.952718099533369,-0.6067939506250001,1114.1440580589715,2.2528,10.012058999999999,11.335577554360649,0.0,1.0
AlICl6,mp-27935,4,-2.9095948,2.196263187708041,-1.31050801182,554.3600436045623,2.2907,6.354327,11.862518,1.0,1.0
SiP,mp-2798,36,-5.554520330833332,2.076295941349461,-0.13522039011904732,566.7990377045696,1.8187,10.434132842245443,15.611119,2.0,1.0
Sn2SO5,mp-28025,114,-5.9933095490625,4.03834931859044,-1.9032519339843752,1149.635097492876,3.5083999999999995,9.067292,11.260073,3.0,-1.0
Pb9(Br5O2)2,mp-28041,85,-4.062157397826087,6.6376945011478385,-1.1592986628260875,1364.8356071093895,2.9018,8.648296,12.562466,2.0,1.0
KTlBr4,mp-28048,52,-2.6281530387500003,3.886981939377291,-0.9581933575833336,962.232989699456,1.8179,8.149151,10.8905,3.0,-1.0
SbS8Cl3,mp-28064,2,-3.854049965,1.9750317780809736,-0.8811772062316662,814.9357409123804,2.8797,8.583079,11.533313931079912,0.0,1.0
Rb2TeI6,mp-28070,128,-2.3601447561111097,4.166629334203272,-0.7769842266666669,844.8598933864314,1.749,8.250241,12.412276,3.0,-1.0
SCl,mp-28096,43,-3.15951406,1.5904792723260246,-0.7960936381924997,563.9370655097308,2.8905000000000003,9.733315988554619,14.908712674983175,0.0,1.0
In5Cl9,mp-28112,167,-3.1330683175000003,3.5672557416473967,-1.3442770717385717,831.5292224117312,2.9919,9.477322642810996,9.477322833154359,0.0,1.0
AlSbI6,mp-28118,12,-2.639826258125,3.5227783216224737,-0.512494663125,858.0557609099919,2.3121,8.078589323898077,10.984077057012756,0.0,1.0
Na2S5,mp-28127,62,-3.825710233928572,2.010349779778124,-0.9693882671130948,681.6261515119526,1.7969,5.917043,14.756817999999999,3.0,-1.0
SCl2,mp-28128,19,-2.713757739583333,1.6126404751647485,-0.7201937994650001,848.2355285515226,2.0979,5.181333,16.824014000000002,0.0,1.0
Ni(ClO4)2,mp-28138,148,-4.269823597727273,2.7892448926199105,-0.6253542901381816,613.4217870606876,4.0945,4.8599053858701815,16.835111752380797,2.0,1.0
P2Pb3S8,mp-28140,198,-4.664267581730769,4.452499032927368,-0.8374651303571432,1402.3754635765665,2.3126,11.193213,11.193213,3.0,-1.0
Na3P6N11,mp-28161,198,-6.966093909,2.5656721450764635,-0.7710506148804278,1058.5459726748968,3.817800000000001,10.191464,10.191464,3.0,-1.0
AuSCl5,mp-28192,14,-2.6301939382142865,3.0528577168858324,-0.7707473252750004,883.9865961893083,1.7882000000000002,8.194637,13.822513515476265,0.0,1.0
TlCdCl3,mp-28218,62,-2.8413087010000004,4.988942100893421,-1.4320895669560003,563.3760196855177,3.3343,4.045719999999998,15.168951000000002,1.0,1.0
TlCdBr3,mp-28219,62,-2.5217162675,5.757789325004091,-0.8826517955000004,641.9828165271489,2.9081,4.219797,15.781386999999999,1.0,1.0
Ba5(GaS4)2,mp-28252,64,-4.9135942105,4.275594409595212,-2.0179299378333337,1681.8258064945148,2.5334,12.029547,12.934052426441646,3.0,-1.0
Na5MnO4,mp-28262,31,-4.7884731137499985,2.7570200627435746,-1.6847951859781845,563.4697263031035,1.3948,5.8860019999999995,12.145041,3.0,-1.0
K3CuO2,mp-28273,92,-3.956994896875,2.7845165255573208,-1.303372488791667,1015.4111380687468,1.5307,8.673691,13.4969,3.0,-1.0
Na2GeSe3,mp-28278,14,-3.7168800558333337,3.5478091370460407,-0.7602022689496527,665.5610255614405,1.6256,6.158030999999999,16.412759,3.0,-1.0
SnPCl9,mp-28293,2,-3.1383972472727275,2.3156404605635648,-1.2558957466283118,672.2939691602587,2.4344,7.41626,10.001985084503376,0.0,1.0
Rb4CdBr6,mp-28315,167,-2.868555162272727,3.637818430489527,-1.5352292268181815,852.4095698849893,3.212,9.482212265671444,9.482212297905381,3.0,-1.0
K3LiSi4,mp-28316,62,-3.4793297978125,1.7012168159767898,-0.11165782435416682,923.684368870118,1.5223,7.673853999999999,12.295163,3.0,-1.0
LiGaBr4,mp-28326,14,-3.01372371375,3.3871640782727797,-1.0996029588888891,777.0965989315782,3.4374,7.363592,14.048204951468104,3.0,-1.0
RbI3,mp-28328,62,-2.17800581125,3.971292272431076,-0.7898628318749998,779.7080226945634,1.9641,6.9946410000000006,11.019809,3.0,-1.0
TeAuCl7,mp-28330,2,-2.613408938333333,3.0604826901594624,-0.9251712375355556,621.5053012990312,1.5772,7.976201,9.530040298555036,0.0,1.0
Li3P7,mp-28336,19,-4.721553108,1.9826323869126583,-0.3595761449999998,796.1322542143855,1.7924999999999995,7.628682,10.59725,3.0,-1.0
NbAlCl8,mp-28358,63,-4.2102839345,1.9835960016973384,-1.822515066108,675.5884808203566,2.0189,8.741689,9.929485667094443,0.0,1.0
AuSeCl7,mp-28372,14,-2.5124345602777782,2.9494575468164377,-0.785017909740417,1180.263793217095,1.743,9.076772,13.049307265037672,0.0,1.0
Cs3InO3,mp-28381,14,-4.2257918071428575,5.042965323811502,-1.6293793425061576,739.6019492776062,2.1089,7.458014,11.996469669269375,3.0,-1.0
K4ZnO3,mp-28382,2,-3.8084307015625,2.7564364537346,-1.5036387260312498,650.1352190104842,1.6956,7.038594,11.18832078799307,3.0,-1.0
GaBr2,mp-28384,52,-2.8784187179166665,3.4388226506831163,-0.7777691904166666,886.6876398410386,3.1066000000000003,7.857659,10.737248,1.0,1.0
SBr2O,mp-28407,29,-3.5282959259375,2.5679870073210282,-0.7801688220312504,1075.3332943938851,2.7319,4.516254,19.380823,0.0,1.0
K2TeSe3,mp-28419,14,-3.3554116316666662,3.2172122843409134,-0.7134394221718748,913.9363190268962,1.9573,6.7420789999999995,13.448638575648394,3.0,-1.0
Cs2HgI4,mp-28421,11,-2.218988327142857,4.349558820200799,-1.0489118172660097,743.7058832681572,2.0411,8.141432,11.286585280607815,3.0,-1.0
Tl3Cd2I7,mp-28432,55,-2.26805400125,5.63408405462417,-0.6348184375000002,1017.5900323810213,1.946,4.5905879999999994,15.452172000000001,1.0,1.0
Ti(ClO4)4,mp-28481,15,-4.744489909285714,2.2268552892579128,-0.8948926033987299,664.6605669062583,2.9099,7.649192673223037,13.400360676630466,0.0,1.0
Sb5IO7,mp-28485,190,-5.596991415,5.190107029423,-1.6055547152884615,542.4317483714241,2.4519,6.947386202739704,12.976919,2.0,1.0
KInBr3,mp-28529,147,-2.959353408,3.5357910555377012,-1.2047809486000003,739.4499953221291,2.3375,8.787917797025699,11.056208,2.0,1.0
As2PbO4,mp-28537,14,-5.945641721785713,5.312716128356377,-1.6579923282142854,526.4009445570118,3.0924000000000005,6.401197,12.160197,3.0,-1.0
RbGeBr3,mp-28558,33,-3.1992835925,3.5573955530283308,-1.0964152830000002,742.785343400622,1.9851,7.782599,11.405517,3.0,-1.0
RbAsSe2,mp-28562,15,-3.7760518771875,3.660312534713313,-0.6181830189843747,1155.2351094683881,1.6265,9.700248050002124,12.970102935208647,3.0,-1.0
Rb4PbBr6,mp-28564,167,-3.13961388,3.7933592932665436,-1.552673643636364,900.4453980629436,3.9477,9.656594974578825,9.656595206008586,3.0,-1.0
NaInBr4,mp-28569,19,-2.8495775575,3.5077017683934884,-1.0805705397222225,866.1740239435971,3.1545,6.890194,11.618007,3.0,-1.0
NaInI4,mp-28570,14,-2.4795563729166665,3.7157670393359883,-0.7858253051388889,1153.737028042139,2.4484,8.177445,16.161638438754434,3.0,-1.0
W(S4Cl3)2,mp-28575,2,-4.2103056656666675,2.1006431730966346,-0.9926289146373336,1032.5042790950074,0.6467,8.512666000000001,14.512956184542176,0.0,1.0