pretty_formula,task_id,spacegroup.number,final_energy_per_atom,density,formation_energy_per_atom,volume,band_gap,min_abc,max_abc,Dimension,Dim
LiCa2Rh,mp-862764,225,-3.5578352425,3.4347220505156946,-0.2367276183333331,91.85796386473127,0.0,5.064585852211215,5.064585852211215,3.0,-1.0
RbGe3,mp-862769,194,-3.7097242775,4.166013763211308,0.002680131875000047,241.8557992672068,0.0,4.947765,7.512913670522576,3.0,-1.0
TeI2,mp-862773,136,-2.099292263333333,3.8617540337971215,-0.0355168766666667,328.00869225622375,0.8206,4.176314,8.862293,1.0,1.0
KPAuSe3,mp-862850,12,-3.848200779166667,4.847204921583292,-0.4673173156004466,345.26148025520854,1.1129,7.239591434137219,8.240995274698925,3.0,-1.0
CsMn(CN)3,mp-863692,225,-7.998189775,3.4194984190278763,-0.2988313368407756,258.2426649981049,0.0,7.147941632688951,7.147941632688951,3.0,-1.0
KNa2Bi,mp-863707,225,-2.287515895,3.843690943420775,-0.38008147241666657,127.03809962147837,0.6817000000000002,5.642648474258343,5.642648474258343,3.0,-1.0
LiMg2Ag,mp-864598,225,-2.2012297475,3.634285404127561,-0.2157200049999997,74.66776426648356,0.0,4.7266057813667945,4.7266057813667945,3.0,-1.0
LiMg2Rh,mp-864601,225,-3.498033875,4.0321998729332,-0.3795861658333335,65.25549746999411,0.0,4.519017615186733,4.519017615186733,3.0,-1.0
Na3Sn,mp-864742,139,-2.130962865,2.7270909296579258,-0.14258073874999974,114.27885270399084,0.0,5.889144560425308,5.889144560425308,3.0,-1.0
Na3In,mp-864758,139,-1.717064575,2.5383369583451842,-0.043154479999999884,120.23069025970457,0.0,6.092417882858332,6.092417882858332,3.0,-1.0
LiMg2Zn,mp-864762,225,-1.72974728,2.7571961595064627,-0.13744063583333332,72.84893561286901,0.0,4.687911484086705,4.687911484086705,3.0,-1.0
BrCl,mp-864928,186,-1.699305805,2.401656937346041,-0.25391704663000003,159.51887392997472,1.3584,4.394768232320904,9.53695,0.0,1.0
Mg3Sc,mp-864937,194,-2.8177222375,2.131587945019505,-0.03439492374999986,183.6464262702327,0.0,5.095151,6.451302502740432,3.0,-1.0
MgSc2,mp-864941,63,-4.793840571666666,2.6531995864282782,-0.03876781833333295,142.96813499077743,0.0,5.151516,8.5001909795404,3.0,-1.0
Mg3Ag,mp-864952,194,-2.0270697975,3.7072530507272017,-0.11872075916666658,161.95148379529982,0.0,4.916206,6.167541955912826,3.0,-1.0
CaB6,mp-865,221,-6.4195144357142855,2.4379955586864224,-0.4078072207142855,71.47823185500906,0.18350000000000044,4.150094,4.150094,3.0,-1.0
Mg2Cu,mp-865014,72,-2.53457876,3.373850582045673,-0.10132316999999998,110.4016997935141,0.0,5.289370832301796,5.289370832301796,3.0,-1.0
NaCa2Tl,mp-865051,225,-2.1479847025,4.075918582314641,-0.22610846333333345,125.28808496576515,0.0,5.6166184594293025,5.6166184594293025,3.0,-1.0
NaLi2Bi,mp-865101,225,-2.7429925875,4.737795744467637,-0.4873595224999998,86.16815787690085,0.3515000000000001,4.957780201340111,4.957780201340111,3.0,-1.0
NaSr2In,mp-865124,225,-2.084127315,3.4980431931729936,-0.2228027016666665,148.6053836087425,0.0,5.945428769535298,5.945428769535298,3.0,-1.0
NaSr2Tl,mp-865128,225,-1.97607142,4.4883394078666194,-0.21225449416666664,148.95369300534858,0.0,5.950070218447006,5.950070218447006,3.0,-1.0
Be3Ni,mp-865168,139,-4.53327952,4.213290212219145,-0.2836857012499996,33.787827882743514,0.0,4.075229804060871,4.075229804060871,3.0,-1.0
Mg(BeAs)2,mp-865185,164,-4.0015715479999985,3.955155825956148,-0.3221030299999995,80.68204240057842,0.6105999999999998,3.7964301526894975,6.4639120000000005,3.0,-1.0
Ti6Al16Ni7,mp-865235,225,-5.6591615131034505,4.564324438549373,-0.5638814393103447,411.01620504421476,0.0,8.345607985964353,8.345607985964353,3.0,-1.0
Mg17Al11Pd,mp-865352,8,-2.567944542068965,2.3653801302216357,-0.030497066551723837,573.1287214789877,0.0,8.977770153716456,9.079373138793725,3.0,-1.0
YMg3,mp-865376,225,-2.90762223,2.7312038463741373,-0.09079441416666656,98.3851291701092,0.0,5.181810014396321,5.181810014396321,3.0,-1.0
VBr3,mp-865473,194,-4.277699185,3.3521697686378094,-0.7790277625000006,287.95766617163287,0.0,3.363495,9.942683198232759,1.0,1.0
Mg17Al11Ag,mp-865489,8,-2.4399933906896547,2.3308144808440407,0.01651181563218431,582.659878631863,0.0,9.082904911762316,9.14300256749417,3.0,-1.0
YAl3,mp-865527,194,-4.8636697825,3.5724025026251414,-0.4378701316666662,157.9012072317443,0.0,4.6318529999999996,6.274079423767603,3.0,-1.0
Y2Mg,mp-865583,63,-4.91128446,3.820194971234572,-0.06687703444444419,175.7097105720806,0.0,5.495571,8.831058325980187,3.0,-1.0
Y2MgAl,mp-865602,225,-4.8691675325,3.802879770726684,-0.299468005833333,100.03644559392772,0.0,5.210640172078858,5.210640172078858,3.0,-1.0
Li5Mg,mp-865604,189,-1.8790692416666663,0.8161781664719042,-0.021586844444444253,120.0576226434,0.0,4.985976,5.272959728813506,3.0,-1.0
Na2MgSn,mp-865625,194,-2.2641261875,2.7859142064096303,-0.2043371029166665,225.29969798127757,0.023400000000000087,5.082619967279081,10.070585000000001,3.0,-1.0
Li5(Cu2P3)2,mp-865734,71,-4.340875834666666,3.706913926495848,-0.4461320892063488,212.6594620446506,0.0,7.903381596189886,7.903381596189886,3.0,-1.0
LiSc2Rh,mp-865793,225,-6.0340857475,4.670742426203425,-0.5495435108333329,71.01793903676366,0.0,4.648302190631759,4.648302190631759,3.0,-1.0
LiSc2Ru,mp-865795,225,-6.3265721625,4.6817704075037385,-0.3645094795833329,70.19963663682361,0.0,4.630379862155803,4.630379862155803,3.0,-1.0
Li3Ag,mp-865875,225,-2.2968529375,3.1767943565531525,-0.15702178666666675,67.26805110529617,0.0,4.565005011807983,4.5650057189148185,3.0,-1.0
Li2CaIn,mp-865890,225,-2.4221902825,3.1516238650814885,-0.2784079466666665,88.92636766962936,0.0,5.010124487924228,5.010124487924228,3.0,-1.0
Li2MgSn,mp-865935,225,-2.688400845,3.5179359555227703,-0.3314764354166666,74.0586529221293,0.0,4.713718053172888,4.713718053172888,3.0,-1.0
LiSc2Tc,mp-865936,225,-6.3564429825,4.519935185328028,-0.12282273583333315,71.58525802308647,0.0,4.660646860817713,4.660646860817713,3.0,-1.0
LiMg2,mp-865939,139,-1.75423565,1.4748130396346129,-0.051074661111111176,62.54664368274796,0.0,5.755831734113933,5.755831734113933,2.0,1.0
Li2CaSn,mp-865964,225,-2.965497835,3.437484923372295,-0.5072434679166662,83.41135656488474,0.0,4.904334242390908,4.904334242390908,3.0,-1.0
Li2CaSi,mp-865965,225,-3.1312754225,1.9241696624828808,-0.3190855141666664,70.80444133649381,0.0,4.643639528516613,4.643639528516613,3.0,-1.0
Li2CaGe,mp-865986,225,-3.0343738125,2.8762703026038143,-0.42275544541666665,73.08918276604578,0.0,4.693059221453741,4.693059221453741,3.0,-1.0
Y3Al7Cu2,mp-865990,166,-4.988791153333334,4.345998438280355,-0.5040530291666663,222.6331759598945,0.0,9.066652294339844,9.066652462032335,3.0,-1.0
MgSc2Cd,mp-866077,225,-3.965923295,4.166068507916979,-0.16889628999999973,90.33081299921065,0.0,5.036362392146935,5.036362392146935,3.0,-1.0
MgSc2Tc,mp-866082,225,-6.2779289725,4.610023950834155,-0.12146942999999945,76.44088850731737,0.0,4.763727473165528,4.763727473165528,3.0,-1.0
Li2MgCd,mp-866194,225,-1.75962598,3.312854048491221,-0.17437209416666666,75.48592805219364,0.0,4.743806860925939,4.743806860925939,3.0,-1.0
Ca3CrN3,mp-8670,63,-6.723925149285713,3.2417373273643326,-1.0771731960199995,219.4939263731894,0.0,5.060853,6.649720709503069,3.0,-1.0
Rb,mp-867126,166,-0.95612535,1.5577407321531462,0.024408722499999886,273.32395803797203,0.0,12.599736665805874,12.599736947889033,3.0,-1.0
LiCa2Tl,mp-867167,225,-2.35645609,4.179821485673847,-0.2860121883333333,115.79787006531882,0.0,5.471064771162739,5.471064771162739,3.0,-1.0
SrLi2Sn,mp-867171,225,-2.8531361625,3.9355960296231385,-0.4739114520833332,92.91365937502859,0.0,5.083913908968168,5.083913908968168,3.0,-1.0
Sr,mp-867202,194,-1.68155755,2.655928121466085,0.007923703333333476,219.127064229701,0.0,4.264339332836448,13.914315,3.0,-1.0
Sr2LiIn,mp-867208,225,-2.2534037925,3.5638732797516246,-0.2435115166666666,138.38270991372178,0.0,5.8058473051426365,5.8058473051426365,3.0,-1.0
LiCa2Hg,mp-867210,225,-1.854434545,4.275132897984118,-0.2984837970833332,111.7428425858327,0.0,5.406442282430102,5.406442282430102,3.0,-1.0
LiCa2In,mp-867211,225,-2.4691814275,2.9049552185653047,-0.3012298383333332,115.41924759794766,0.0,5.465095375715961,5.465095375715961,3.0,-1.0
Li3In,mp-867226,225,-2.3600479875,3.062220684451719,-0.2404349050000003,73.5535425896382,0.0,4.702977101166664,4.702977101166664,3.0,-1.0
RbSn3,mp-867229,194,-3.37555105375,4.8599609389920415,-0.12323864437500065,301.76802152516814,0.0,5.503703,7.956898170328497,3.0,-1.0
K2SbAu,mp-867335,63,-2.92063031,4.695916457507283,-0.5147101415000002,280.71471651054253,1.4699000000000002,6.636275657083044,6.638572,3.0,-1.0
CsK2Bi,mp-867339,225,-2.09668427,3.9328237717168975,-0.3451256259827584,177.36958558622112,0.5693000000000001,6.306640126568823,6.306640126568823,3.0,-1.0
Li3Ge,mp-867342,225,-2.9148163825,2.5704977087078986,-0.3273672687500002,60.377008801011144,0.0,4.40347495292729,4.40347495292729,3.0,-1.0
Li3Cd,mp-867343,225,-1.8434108575,2.9690038556149365,-0.18099626750000009,74.5166637560871,0.0,4.72341531557008,4.72341531557008,3.0,-1.0
Ca2MgIn,mp-867350,225,-2.39756124,3.111739520608253,-0.30677035499999983,117.01536827665008,0.0,5.490172210603962,5.490172210603962,3.0,-1.0
Sc2Ni,mp-867501,227,-6.504844841666666,4.46682642799107,-0.3564865449999992,441.9509626011145,0.008399999999999963,8.549939218310268,8.549939218310268,3.0,-1.0
LiCuS,mp-867689,31,-4.044514705,3.513759378228821,-0.8841415704861113,96.92843705410583,0.7925999999999993,3.829457,6.173852,3.0,-1.0
Li6CuS4,mp-867701,44,-3.956107864545455,2.284627903017424,-1.2793166520454546,169.6802204262261,0.0,7.687580896518877,7.687580896518877,3.0,-1.0
Ca2AgSn,mp-867751,225,-3.248859115,4.703307786263261,-0.5355272104166664,108.29487358873598,0.0,5.3502527491698935,5.3502527491698935,3.0,-1.0
Al3Cr,mp-867780,139,-5.3628258225,3.8153056821194613,-0.1403820824999995,57.85991229018276,0.0,4.849629206832312,4.849629206832312,3.0,-1.0
LiCa2Cd,mp-867803,225,-1.9079395775,2.834379080922246,-0.1971864808333333,116.88303456975763,0.0,5.488101801948648,5.488101801948648,3.0,-1.0
LiCa2Ga,mp-867805,225,-2.50773066,2.4811382433601468,-0.2706761277083332,104.95414236634821,0.0,5.2946614282465685,5.2946614282465685,3.0,-1.0
Ca2ZnRh,mp-867854,225,-3.44762114,4.641242284387002,-0.2888083299999997,88.89752933941679,0.0,5.009582844129838,5.009582844129838,3.0,-1.0
MnPSe3,mp-8695,148,-5.270124787,4.014945186219659,-0.25757943405157063,267.0065871592111,0.0,8.362362104550362,8.362362606574413,2.0,1.0
Be,mp-87,194,-3.739412865,1.895724397211328,0.0,15.788244650249196,0.0,2.2598253728828253,3.5698779999999997,3.0,-1.0
Na3SbSe4,mp-8703,217,-3.48174901875,3.879809201652759,-0.7246735436718748,216.80914753501492,1.3012,6.554906444075843,6.554906444075843,3.0,-1.0
K2MnSe2,mp-8716,72,-4.613316284,3.0845660460631072,-0.9384508200685346,313.37154161749874,1.0739999999999998,8.24811746573932,8.24811746573932,3.0,-1.0
Rb2MnSe2,mp-8717,72,-4.548927333,3.7102272496147495,-0.9260078188685348,343.5392487624503,0.0,8.550432019816249,8.550432019816249,3.0,-1.0
K2MnTe2,mp-8719,72,-4.3275687240000025,3.4311891155712337,-0.793747479131035,375.87251953577413,0.0,8.803786392022184,8.803786392022184,3.0,-1.0
Rb2MnTe2,mp-8720,72,-4.238509947,3.890252254224384,-0.7566346519310343,410.6888341580966,0.0,9.097301448222707,9.097301448222707,3.0,-1.0
Na4CdP2,mp-8752,166,-2.77169479,2.341252960225701,-0.3419704543537416,188.88637336322844,0.7504000000000001,9.079841478962503,9.079841687489326,3.0,-1.0
K4HgP2,mp-8753,166,-2.5907053757142857,2.708215561404081,-0.3661556791632655,256.866862193333,1.056,9.69039790560083,9.690398699740117,3.0,-1.0
ScB12,mp-8772,225,-6.863851503846152,2.8501150631557026,-0.211146091923076,101.77697949415592,0.0,5.2406865534250375,5.2406865534250375,3.0,-1.0
Ca2ZnN2,mp-8818,139,-5.093857362,3.5222574535297544,-0.8586798129519998,81.83209720489744,0.77,6.807623084396124,6.807623084396124,3.0,-1.0
Na3As,mp-8860,225,-2.5265498575,2.5882141662824654,-0.3757810937499997,92.31711846321136,0.11660000000000005,5.073010322402272,5.073010322402272,3.0,-1.0
Ba3NaN,mp-8868,194,-3.347154647,3.386127160665484,-0.34234726814266664,440.3524099290576,0.0,7.004026,8.520419851984995,3.0,-1.0
AlAs,mp-8881,186,-4.68056761,3.5909816738761333,-0.4782204924999993,94.24394665417678,1.6862000000000004,4.045529348946316,6.649241,3.0,-1.0
GaP,mp-8882,186,-4.61977581,4.010104992637818,-0.3990851280357148,83.39477768692146,1.2984,3.8803561110873575,6.395361,3.0,-1.0
K2GeAs2,mp-8930,72,-3.631399225,3.116954896985575,-0.3989867132000001,320.37072780253663,0.8761000000000001,8.335955354284295,8.335955354284295,3.0,-1.0
Rb2SnAs2,mp-8931,72,-3.46934209,3.824932561691173,-0.4115667280000001,381.5953928403288,0.9307,8.797947312068196,8.797947312068196,3.0,-1.0
Cs2SiP2,mp-8932,72,-4.075894506,3.4395422806092246,-0.4673564086009854,343.5880099834846,1.3512000000000004,8.719505931286532,8.719505931286532,3.0,-1.0
Y,mp-9,225,-6.44250777,4.551009834796981,0.023963343333333498,32.439314027732784,0.0,3.579828488919825,3.579828488919825,3.0,-1.0
Na6P4W,mp-9007,186,-4.275642810909091,2.8252606285607245,-0.4120807003896109,523.8869094157859,1.3043,7.1924740000000025,9.170949413842061,3.0,-1.0
K2NaAlAs2,mp-9069,72,-3.3364006575,2.7455350582094296,-0.5698568657222219,336.2902281674472,1.2479999999999998,8.91416715941007,8.91416715941007,3.0,-1.0
RbVP2S7,mp-9102,5,-5.065871093636363,2.4436673702102887,-0.956603736047078,287.31224230079437,0.0,6.538779786017956,6.8284090367922445,3.0,-1.0
CaP3,mp-9122,2,-5.1857499325,2.7176920611636106,-0.6243855664285718,162.52798717625626,0.06310000000000038,5.609472,5.694605092837694,3.0,-1.0
LiZnAs,mp-9124,216,-3.1355648166666668,4.577797983183909,-0.5263031894444445,53.420934278668454,0.5518000000000001,4.227420920761026,4.227420920761026,3.0,-1.0
Y2Al3Si2,mp-9177,12,-5.556631388571428,3.8874224019476302,-0.5537317090476189,134.52335685552814,0.0,5.4953847409466245,6.640073928900039,3.0,-1.0
Fe(SiP)4,mp-9198,1,-6.041138171111113,3.345922041511406,-0.2828712371428573,144.9566503161705,1.0972000000000008,4.892539,6.089023462075425,3.0,-1.0
K3AuO,mp-9200,221,-3.065510128,3.64482762945894,-0.8953613580499997,150.46282867022006,0.7658,5.318752,5.318752,3.0,-1.0
LiBC,mp-9244,194,-6.3140738,2.151446160042454,-0.37570868750000014,45.94316789830389,1.1271999999999989,2.749062408263044,7.019742,3.0,-1.0
Cu2SiS3,mp-9248,36,-4.776791835,3.892855125689621,-0.7696756748958334,214.45126676527082,1.3219000000000003,6.0889809999999995,6.36413055800437,3.0,-1.0
KSe,mp-9268,189,-3.2455911175,2.7283601335662016,-0.9424359051718748,431.11702932737336,0.9768,6.098357,9.034952039860533,3.0,-1.0
CuP2,mp-927,14,-5.08744298,4.2855874660017035,-0.11218351571428542,194.50019476720382,0.9645,4.820067,7.534380259243687,3.0,-1.0
C,mp-937760,69,-9.22260534,1.895030051680634,0.004175360000001405,21.0489923888276,0.4304999999999999,2.4681182219079383,4.526475107220297,2.0,1.0
AlB2,mp-944,191,-5.744440563333334,3.14766621242468,-0.0429874394444442,25.64060773080853,0.0,3.0069857706555583,3.2744240000000002,3.0,-1.0
KAg2SbS4,mp-9490,121,-3.80899312125,3.9210859214592033,-0.7094341636041666,213.80070957349602,1.0697,6.669303748843802,6.669303748843802,3.0,-1.0
Cs,mp-949029,223,-0.84871278,1.861139457065,0.0466895920689655,948.6433451563516,0.0,9.825794,9.825794,3.0,-1.0
Sr,mp-95,229,-1.67643704,2.7091193785888654,0.0130442133333335,53.70617262768193,0.0,4.116695058159518,4.116695058159518,3.0,-1.0
Mg(AlC)2,mp-9514,164,-5.571729022,2.92943775137171,-0.06273040000000023,57.982345900046866,1.8172,3.39064637131698,5.823716,3.0,-1.0
Ag3AsS4,mp-9538,31,-3.79290349375,4.675097249640745,-0.4118102584375003,374.21641439137153,0.3576000000000001,6.689885,7.954203999999999,3.0,-1.0
BaB6,mp-954,221,-6.409303157142857,4.281989037924458,-0.40997152071428544,78.40967655904984,0.06230000000000047,4.280126,4.280126,3.0,-1.0
GeAs,mp-9548,12,-4.668993054166667,4.812662479027046,-0.02791992416666685,305.483880406514,0.6389,8.542587141074126,9.902348462066966,2.0,1.0
ScMnSi,mp-9550,189,-7.5975210955555585,4.506017839412914,-0.6243578971072807,141.48738130502605,0.0,3.835981,6.52612385082945,3.0,-1.0
SrZnSi,mp-9556,194,-3.2278742766666664,4.139152143576903,-0.4363613155555554,145.31850598650894,0.0,4.315524506935397,9.009966,3.0,-1.0
LiBeAs,mp-9562,129,-3.92111995,3.4575508908613535,-0.4853019044444444,87.28786961811899,1.0072,3.7482620000000004,6.212895,3.0,-1.0
Li2Sb,mp-9563,190,-3.2149422705555555,3.7576803737601288,-0.5659932794444447,359.6455541742177,0.0,6.568351,7.9514049874827135,3.0,-1.0
Ca(MgAs)2,mp-9564,164,-3.846973786,3.3320204706985868,-0.942094428,118.87393240412294,1.2584,4.38133575879868,7.150607000000001,3.0,-1.0
Ca(MgSb)2,mp-9565,164,-3.4035924439999996,3.812302627850645,-0.7107599520000001,144.70109434834316,0.7915000000000001,4.6930589768043625,7.586284,3.0,-1.0
Sr(MgSb)2,mp-9566,164,-3.381000564,4.083897669066742,-0.7513917973333335,154.40879317758547,0.9796999999999998,4.754407906507391,7.887666,3.0,-1.0
Li3Ga2,mp-9568,166,-2.682752084,3.4890242033829915,-0.3261601630000001,76.27718243022512,0.0,5.259515287568332,5.259516296140738,3.0,-1.0
Ca(ZnP)2,mp-9569,164,-3.771091884,3.9807652790809263,-0.7007601194285712,97.12850190857849,0.9290000000000004,4.04793564588779,6.844612,3.0,-1.0
Ca(CdP)2,mp-9570,164,-3.4987130120000005,4.745561921156472,-0.563122787428572,114.3685598124525,0.8209000000000004,4.321240332684123,7.072276,3.0,-1.0
NaBeAs,mp-9573,194,-3.6301025583333337,3.08942271816939,-0.3923747294444446,114.94104254224848,1.3449999999999998,3.836608006614176,9.016742,3.0,-1.0
NaBeSb,mp-9574,194,-3.230501986666667,3.615104303739422,-0.16947987944444462,141.25607761467785,0.9948000000000006,4.170992839194525,9.37557,3.0,-1.0
LiBeSb,mp-9575,186,-3.50326892,4.4736983335012415,-0.24415659611111096,102.23224797449676,0.9076000000000004,4.172425210695214,6.780786999999999,3.0,-1.0
Ca3(AlSi)2,mp-9577,71,-3.9007036985714287,2.2266966725811135,-0.42090665000000016,171.79492680729732,0.0,9.76391535149696,9.76391535149696,3.0,-1.0
Ba3(AlSi)2,mp-9578,71,-3.7989922371428575,3.8985875752982224,-0.35632192428571435,222.3863043233431,0.0,10.588277632995322,10.588277632995322,3.0,-1.0
LiP,mp-9588,14,-4.18436570625,2.0043940214811222,-0.5232613422023813,251.28370101730164,0.8536999999999999,4.970385,10.250750763657507,3.0,-1.0
K3BAs2,mp-9665,15,-3.5645569275,2.3953460428962368,-0.3430860238611106,385.36840256971885,1.3129,6.7190612441157285,9.154158923102713,3.0,-1.0
K2NaGaP2,mp-9666,72,-3.353913228333333,2.4666462993342444,-0.4555603389960314,313.51715754537634,1.5118,8.659199804378577,8.659199804378577,3.0,-1.0
InP,mp-966800,186,-4.2839725075,4.569158099831786,-0.20148771178571406,105.96828172715756,0.5137999999999998,4.210458355445047,6.902183999999999,3.0,-1.0
K2NiP2,mp-9672,63,-4.230668087,2.6508482488352705,-0.4651668276285712,249.1108094573791,0.6446000000000001,5.611457,7.622695580290872,3.0,-1.0
K2NiAs2,mp-9673,63,-3.883542127,3.515686604456365,-0.4197078501999997,270.86127625124647,0.08999999999999986,5.795652,7.77945571960044,3.0,-1.0
K2NaGaAs2,mp-9676,72,-3.1485295141666665,3.1239922703399805,-0.5015657769722219,340.9881497202285,1.0602,8.910381538591206,8.910381538591206,3.0,-1.0
K2PAu,mp-9687,63,-3.21297336625,4.3591341767348215,-0.4859820423928571,233.23546054978559,1.4328999999999998,6.183731487662933,6.3563790000000004,3.0,-1.0
Ca(AlGa)2,mp-9690,139,-3.45805497,3.821549521582601,-0.3474664609999998,101.454766200776,0.0,6.297300988119116,6.297300988119116,3.0,-1.0
Si,mp-971661,217,-5.343675878695652,2.0812846660457542,0.08163814130434804,515.3800565891875,1.3398000000000003,8.748155616328507,8.748155616328507,3.0,-1.0
C3N4,mp-971684,63,-8.42382443,1.943884201227132,0.07477997721142872,314.56071258096733,1.2641000000000002,7.132930503366059,7.137645,2.0,1.0
YMg3,mp-971794,194,-2.8993013925,2.676557794668156,-0.08247357666666666,200.78762636898983,0.0,5.167904,6.6980123924368025,3.0,-1.0
Rb3BAs2,mp-9718,15,-3.4852618033333336,3.2064818530172885,-0.3287233369444446,431.96279883558856,1.2941000000000005,6.914704317231866,9.655141255319778,3.0,-1.0