pretty_formula,task_id,spacegroup.number,final_energy_per_atom,density,formation_energy_per_atom,volume,band_gap,min_abc,max_abc,Dimension,Dim
KSbO3,mp-14607,201,-5.639386918333333,4.491747846206153,-2.044107599683333,926.53743559431,1.7858999999999998,9.748871000000001,9.748871000000001,3.0,-1.0
Rb2NbAgS4,mp-14636,70,-4.944144985625,3.2999813523528188,-1.3457839036458337,503.16648937007125,2.1942,7.594687723667115,13.925980864781227,3.0,-1.0
Cs2NbAgSe4,mp-14637,70,-4.550950131875,4.3263576509831685,-0.9624111696129668,600.6198226621648,1.8315,8.101747389523448,14.986312575816177,3.0,-1.0
P4S3,mp-1469,62,-5.012266868928571,1.5457554840802366,-0.4305364337372453,945.7333365796388,2.8851,7.178191,11.999680999999999,0.0,1.0
Li7TaN4,mp-14753,205,-5.702706043541667,3.967542723966091,-0.9501955062794446,956.1310031009116,3.341,9.851578,9.851578,3.0,-1.0
Ca3Zn3(TeO6)2,mp-14778,230,-5.681282992625,4.891115535131166,-2.329752094875,1037.0451968671696,2.1295999999999995,11.044342300125797,11.044342300125797,3.0,-1.0
Li7NbN4,mp-14827,205,-5.502681347083333,2.7375652275108666,-0.8965435256544438,958.486678704899,3.3328999999999995,9.859662,9.859662,3.0,-1.0
P3RhO9,mp-14935,9,-7.0453996655128215,3.4781650643940534,-2.290387767586997,973.4213471851976,1.808,9.498264370616402,11.739717113275132,3.0,-1.0
RbBS2,mp-15013,167,-4.86480786625,2.31030733256873,-1.2133314719791664,691.7653126182124,2.8318,9.795531504175667,9.7955320636482,3.0,-1.0
KSnAsO5,mp-15107,33,-5.91558334765625,3.988124002020328,-2.0396562788125,1041.6832262259522,2.1358,6.820482000000001,13.704016000000001,3.0,-1.0
RbSnAsO5,mp-15108,33,-5.89337171890625,4.464146267500522,-2.033677759375,1068.5915113785652,2.5585,6.92512,13.875815,3.0,-1.0
Li6Ca12Mo4N16O3,mp-15202,220,-6.278910360487803,3.4581858857367225,-1.2848650119958516,1131.7251358316228,2.4805,11.37071089,11.370710894329395,3.0,-1.0
Li6Ca12W4N16O3,mp-15203,220,-6.381690658902439,4.446523848602609,-1.261549365044634,1142.7818979305432,2.818,11.40762092,11.407620924583762,3.0,-1.0
K2NbAgS4,mp-15214,70,-4.958680791875,2.9028548517255275,-1.327853491270834,465.9022362938009,2.1502,7.3893959015045345,13.386173145596617,3.0,-1.0
K2TaAgS4,mp-15216,70,-5.21527452875,3.5143232249171343,-1.3648881543958344,468.0386982782852,2.5158,7.398710577688857,13.386732192276535,3.0,-1.0
Rb2TaAgS4,mp-15217,70,-5.200896858125,3.8641467532742633,-1.3829767023958333,505.3723000710244,2.5595,7.601704209967723,13.927202600608995,3.0,-1.0
Cs2TaAgS4,mp-15218,70,-5.20947828625,4.092928365477489,-1.4128410556285926,554.107188504508,2.6022,7.878916242725582,14.568136517843769,3.0,-1.0
Rb2NbCuS4,mp-15221,70,-5.153455551875,3.207492581493021,-1.3967631365625,471.7836454388205,1.988,7.466833368705774,13.989865126191356,3.0,-1.0
Zn3(AsO4)2,mp-15483,14,-5.398069986923077,4.671269788543472,-1.777855264615385,674.0814831581888,1.9057,6.724415,11.142810536124628,3.0,-1.0
Li4V(TeO4)3,mp-1566890,1,-5.71485357925,4.6892381398434315,-1.9440792816666663,925.6594992575224,1.4018000000000006,10.169882521744142,11.07261153636422,3.0,-1.0
Na6NiO4,mp-1567910,38,-3.934243149090909,2.82633479428136,-1.3445420713636365,612.5044486948353,1.5745000000000002,7.4600220010306275,9.290386359216068,3.0,-1.0
Hg(PO3)2,mp-15994,61,-6.2770819951388885,4.6567790852636035,-2.209943672876984,1022.7834760509263,2.5808,7.3115289999999975,14.002873999999998,3.0,-1.0
Rb3P6N11,mp-16107,213,-6.9590882321250005,3.3122500183448547,-0.8141626596304292,1195.818076599074,3.9206,10.614227,10.614227,3.0,-1.0
Cs3P6N11,mp-16108,213,-6.9367606945,3.9291473473936582,-0.8046048770700835,1248.6458009520693,4.0878999999999985,10.768282000000001,10.768282000000001,3.0,-1.0
Na3Cr2(AsO4)3,mp-16383,230,-6.2812670504999994,4.1300687034404575,-2.0737974290000003,948.4119390779872,2.6075,10.720284254283698,10.720284254283698,3.0,-1.0
Na9Fe2O7,mp-16398,29,-4.581372169722221,2.8563680223984216,-1.635509170208333,1001.2963233460885,1.6267,9.599599000000001,10.407607,3.0,-1.0
Cs3Cu5O4,mp-16543,14,-4.437461023333333,4.537144412516507,-1.0903858282327576,1142.531566027798,1.6405000000000003,7.652222,14.907379650894418,3.0,-1.0
KBaNbS4,mp-16780,62,-5.6584873675,3.1318858275553976,-1.7981110411428578,843.2191383048719,2.074,7.074538,12.769189,3.0,-1.0
ZnTeO3,mp-16819,61,-5.069848422250001,5.287729525035768,-1.6418402330000001,605.4800935441906,3.4731999999999994,6.452445,12.429323,3.0,-1.0
Tl3PS4,mp-16848,62,-4.0559739484375,5.470036248785522,-0.7571984148214286,937.8901249068186,2.3082000000000003,9.110525,11.144428999999999,1.0,1.0
Rb3PS4,mp-16863,62,-4.1070091453125,2.7458411500452127,-1.3261532020089293,1005.4212276924884,2.7368,9.448459,11.166538000000001,3.0,-1.0
Ba2CdSe3,mp-16870,62,-4.112717740833333,5.307942341388375,-1.5712900986718754,780.7809363948234,1.5747999999999998,4.559063,18.189186,3.0,-1.0
Na6Sn2Se7,mp-16889,15,-3.553756030666668,3.5183581817250187,-0.8618602070937499,876.0397427513161,1.4178999999999995,7.504810660933758,16.231406874925938,3.0,-1.0
Rb2S5,mp-16911,19,-3.8314320575,2.4471033307232624,-1.0705724175892857,899.1384395080327,1.9768,6.7918210000000006,19.318433,3.0,-1.0
Na6Si2Se7,mp-16961,15,-3.808306174666667,3.0919064035875694,-0.9276447290937502,802.1845366933212,2.1566,7.2400871549426125,15.98160302051994,3.0,-1.0
Rb2WS4,mp-17048,62,-5.490263541785715,3.5066665184576733,-1.3743843871428578,914.942416265298,2.23,7.182865,12.797353,3.0,-1.0
Cs3TaS4,mp-17054,62,-5.19033132125,3.8657377574204,-1.6358382945366388,1216.363781859046,2.9443,10.078247,11.833223,3.0,-1.0
NaAlSe2,mp-17060,15,-4.045113844375,3.3554791756951485,-1.0321010938802084,823.0398587284727,2.2333,7.654420309231327,14.308931621980589,3.0,-1.0
KBaPS4,mp-17088,62,-4.7556137625,2.706682719685902,-1.5649544616530608,823.7019898275956,2.7021,6.786217999999999,12.269114,3.0,-1.0
SrTlPS4,mp-17090,62,-4.645947240357144,3.9661393995655536,-1.3093215886054428,755.6938314683375,2.1011000000000006,6.666484,12.876789,3.0,-1.0
Sr3(AlN2)2,mp-17129,52,-6.104262171666666,4.28964994465083,-1.1743194860577768,577.3261641917113,1.9040000000000001,5.9460190000000015,10.073215,3.0,-1.0
Ba3(AlN2)2,mp-17133,52,-6.051087466666668,5.257478593337195,-1.0446482555022218,659.4438895606785,2.0194,6.271192,10.31969,3.0,-1.0
K2S5,mp-17146,19,-3.857730403928571,1.937518431892787,-1.0597665141607138,817.6942804946805,1.9476,6.600049,18.718726,3.0,-1.0
Na3GaSe3,mp-17148,14,-3.4641286771428565,3.3640642785875534,-0.9698734506473216,741.5464602992546,2.0844,7.349765,15.278251988089476,3.0,-1.0
Rb3SbS4,mp-17154,62,-3.839606663125,3.0102140286041177,-1.2192862975000005,1117.4432541334652,2.3952,9.73719,11.321259,3.0,-1.0
Ca3AlAs3,mp-17186,62,-4.455135001071429,3.5288530390711546,-1.0637449032142858,700.15710760795,1.3763999999999994,4.219169,13.485476,3.0,-1.0
Cs4SnO4,mp-17213,14,-4.486796130555557,4.7905521972734055,-1.7563691063026818,990.426020963644,2.3435,7.492242,11.917910229310214,3.0,-1.0
Rb3TaS4,mp-17220,62,-5.1957561175,3.464567237909982,-1.6093387031250006,1084.3716544710155,2.8458,9.714236,11.306758,3.0,-1.0
Ba2ZnGe2S6O,mp-17244,113,-4.94484804875,3.7155801254349536,-1.6592359112499997,620.0753115673024,2.7369000000000003,6.527622,9.746411,3.0,-1.0
K3NbSe4,mp-17283,62,-4.5467279703125,3.181800322580348,-1.1197094963593752,1098.1356559494923,1.8249,9.770728,11.341905,3.0,-1.0
Na3SiTe3,mp-17291,14,-3.3626843235714285,3.5718171945531223,-0.6770881150000001,892.3386739156424,1.9488,8.892783999999997,12.897224000000001,3.0,-1.0
Cs2WS4,mp-17361,62,-5.502791238214287,3.780835650529834,-1.4112354265517248,1015.271460043002,2.1759,7.395105,13.206401999999999,3.0,-1.0
K2Na3TlO4,mp-17375,58,-4.02294388875,3.874805733231044,-1.4720369488499998,712.3265071086322,1.3295,7.787667,9.744977,3.0,-1.0
Mg2GeS4,mp-17441,62,-4.4639684710714285,2.8119008067627176,-1.3617474107142853,589.3822449368192,2.311,6.059603,12.930760000000001,3.0,-1.0
Cs2FeO4,mp-17443,62,-5.021095022857144,4.1225252642933645,-1.5195993801231538,621.3596455335153,1.6734,6.384786,11.345386999999999,3.0,-1.0
K4Rb2Co2O5,mp-17522,136,-4.379838348461538,3.1740018119744104,-1.4490978202499998,549.5284506001668,1.5347000000000002,6.8019820000000015,11.877341,3.0,-1.0
K3SbSe3,mp-17538,198,-3.5250457757142857,3.1796657470877925,-0.9610554165758926,994.203237031686,2.2951,9.98064,9.98064,3.0,-1.0
KGaS2,mp-17650,15,-4.1497700234375,2.7785457918959438,-1.3786514776250005,826.8854624801145,2.5331,7.477827591749959,15.022636309998221,3.0,-1.0
K6CdTe4,mp-17698,186,-2.8023959777272727,3.0992643889365286,-0.9698062357272728,918.764807040314,1.6614,8.520471,11.158480738182238,3.0,-1.0
Sr2NbN3,mp-17701,15,-7.457399082083334,4.729103984181352,-1.234451730495555,435.6373291114816,2.299,6.422646749007219,12.65584547395807,3.0,-1.0
K2Hg3(GeS4)2,mp-17792,41,-3.561159818,4.285724245517021,-0.8837055757333332,838.2787119922838,1.5622000000000005,6.5528444534386745,19.664679,3.0,-1.0
KCdC3(NO)3,mp-17799,62,-7.047430912727273,2.5756780617630293,-1.0194269330809078,715.7707044308091,4.1322,3.773214,18.554897,3.0,-1.0
Tl3B3S10,mp-17823,2,-4.6412349875,4.219313418201115,-0.7754204299218754,760.5348637827756,1.9583,7.049964,13.966337853003054,0.0,1.0
Ba2TiS4,mp-17908,62,-5.852209232857143,3.7525852068070056,-2.1914387836904763,797.8920341349751,2.0962000000000005,6.906657000000001,12.640348,3.0,-1.0
Rb3SbSe3,mp-17912,198,-3.461424810714285,3.640193400819579,-0.9530908263616072,1122.2520134502158,2.343,10.391944,10.391944,3.0,-1.0
RbPSe6,mp-17945,29,-3.762510074375,3.8061039395953733,-0.34134897439174106,1029.980017806378,1.8541,7.060109,12.378502000000001,3.0,-1.0
Na2Ge2Se5,mp-17964,33,-3.868661886111111,3.7931468427198767,-0.60700438259838,1026.2452781128122,1.4023,6.275486,14.423964000000002,3.0,-1.0
K2MoS4,mp-17980,62,-5.164465492857143,2.414668745671357,-1.3132654369285717,831.8182256794843,1.4116999999999995,6.9801600000000015,12.426919,3.0,-1.0
K3PS4,mp-17989,62,-4.15908589375,2.020887205855673,-1.3295306225089294,908.8812971948137,2.7739000000000003,9.143967,10.663439,3.0,-1.0
CsCuS4,mp-18003,19,-4.024653831666667,3.2237408143797293,-0.8768924134051724,669.0315162400573,1.808,5.279762,13.956443,3.0,-1.0
Ba3TaAs3O,mp-18090,62,-6.0252276003125,5.276850492796312,-1.5455137498437503,1049.3986371484004,1.0798,6.818088,13.682529999999998,3.0,-1.0
Na6Ge2Se7,mp-18100,15,-3.620313103333333,3.3632897269865762,-0.8466231464270834,825.4470124760104,1.6,7.317371558450821,16.082663046181,3.0,-1.0
K2Cd3S4,mp-18101,62,-3.2301676288888888,3.646725549672188,-1.1322313353888884,990.2777805533334,1.7876,6.751710000000001,14.078564000000002,3.0,-1.0
Na2Si2S5,mp-18104,63,-4.713117730277777,1.9947436665834493,-1.2859086405324074,873.9987861242743,3.5318,9.106457260236935,10.539485,3.0,-1.0
K3TaS4,mp-18148,62,-5.2379125028125,2.8805843262140955,-1.6027957605000005,983.4456457441228,2.7558,9.377478,10.91137,3.0,-1.0
KBaPSe4,mp-18156,62,-4.226916573571429,3.7214508684402174,-1.0231592094209188,933.8926502999158,1.2589,7.120185,12.714523,3.0,-1.0
Na3GaS3,mp-18165,14,-3.804309232142857,2.4013912855854174,-1.3198775531250004,649.68929180025,3.0946,7.0035880000000015,14.660714755384506,3.0,-1.0
Ba3NbAs3O,mp-18177,62,-5.7795268215625,4.7173783119496315,-1.5193720448437498,1049.8912716205625,1.042,6.820361999999999,13.677495,3.0,-1.0
Cd4SiS6,mp-18179,9,-3.7226409831818175,4.1686325136327325,-0.9994762321590904,533.8727294389162,1.903,7.244837213605907,12.615194972963874,3.0,-1.0
Sr3TaAs3O,mp-18199,62,-5.949642376875,4.994862306750277,-1.55598711765625,910.3423581525798,1.2877999999999998,6.453764,13.080036999999999,3.0,-1.0
K3AlSe3,mp-18217,14,-3.6978438303571433,2.778659097628999,-1.1886285297901782,911.1231490347163,2.3597,8.196072000000001,13.313128,3.0,-1.0
Na5VO5,mp-18233,57,-5.268362593636363,2.5629398919614266,-2.0680449120833333,637.2456037075907,2.2396,5.859365,16.295429000000002,3.0,-1.0
K6MnS4,mp-18244,186,-3.9831933,2.103536269912043,-1.2817333345595614,659.6064428231931,1.2990000000000002,7.755505,9.909964368416516,3.0,-1.0
K6MnTe4,mp-18246,186,-3.4981824904545458,2.974036382181248,-0.9166094111504702,893.2718140518683,1.4161,8.51126,11.008536143348396,3.0,-1.0
Ba2CdS3,mp-18309,62,-4.466447856666666,4.600372694969873,-1.936481019895833,697.7453024208694,2.0892,4.395633,17.505001999999998,3.0,-1.0
Ba2Ge2Se5,mp-18335,62,-4.520241940833333,4.84184137992417,-1.1242914121354164,1117.6720009844457,1.2916,9.249144,12.849941000000001,3.0,-1.0
Ta2Tl4S11,mp-18344,2,-5.198156152058823,5.265160768504962,-1.00021169819853,966.4224942394859,1.5238999999999998,8.210355999999999,13.493717374264104,3.0,-1.0
KHgC3(NO)3,mp-18376,62,-6.839860394772727,3.1232084294821503,-0.8681481783081815,777.8198775138371,3.2555,4.103122,17.93094,3.0,-1.0
K3AlTe3,mp-18378,14,-3.298244786785714,3.1423391110375736,-0.9401482923571426,1114.114023283378,2.1198,8.764821000000001,14.251812,3.0,-1.0
K3NbS4,mp-18383,62,-4.97507133,2.2877513654681927,-1.5595136614374998,982.6735307950232,2.3437,9.381871,10.889312,3.0,-1.0
Na3GeSe3,mp-18411,14,-3.5919882107142853,3.3652661506783472,-0.8698855052901783,747.039020176191,1.9947,8.362382,12.079930000000001,3.0,-1.0
Ba2Ga2S5,mp-18421,15,-4.786533460555557,3.8843535692470352,-1.7577465717361112,982.2536865680902,2.7735000000000003,8.644981485208689,10.858454641004352,3.0,-1.0
KAg(NO3)2,mp-18429,14,-5.6747139022500015,2.971430940956428,-1.1425246884426663,605.723964263344,2.4229,5.034854,14.450325364112256,3.0,-1.0
Rb4GeO4,mp-18464,14,-4.739248671666667,3.9988859860256647,-1.9028235583333333,794.8039117780303,2.8746,6.938629,11.128595819025866,3.0,-1.0
K6MnSe4,mp-18481,186,-3.7538440290909088,2.7087655247928266,-1.0440489324572886,742.2103885221562,1.2325,8.059139,10.31226075306962,3.0,-1.0
Sr3P14,mp-1853,14,-5.22225274,2.8230984596876683,-0.4661088682352946,819.3502999129677,1.8229,6.385608,12.872916,3.0,-1.0
Rb2Cd3S4,mp-18556,62,-3.2030405522222223,4.03761161309216,-1.1339631197222222,1046.9699958012502,1.7838,6.724728999999999,14.466816,3.0,-1.0
Na2Si2Se5,mp-18562,63,-4.173673789722222,3.253440553267473,-0.7337304717650457,1014.5638378030596,2.4355,9.555054933018964,11.11321,3.0,-1.0
Na2Ge2S5,mp-18568,63,-4.2969225077777775,2.549738018316281,-1.047999232476852,915.8899577878036,2.5464,9.245184964156476,10.717042,3.0,-1.0
K3AsSe3,mp-18594,198,-3.55895568,2.9329165117525555,-0.9192342972901782,971.7719529159807,2.1131,9.905007000000001,9.905007000000001,3.0,-1.0
Rb2MoS4,mp-18612,62,-5.147676334285714,2.8969454827919883,-1.3335805282142863,905.9723136688992,1.8107,7.153391,12.750216,3.0,-1.0
Na2Ge2Se5,mp-18619,63,-3.861274391388889,3.699857374035186,-0.5996168878761579,1052.1213773936076,1.5601,9.664931338689273,11.265983,3.0,-1.0
KPSe6,mp-18625,29,-3.7680111978125,3.623696619571181,-0.3306169885167414,996.8322179548227,1.8858,7.03671,12.065905,2.0,1.0
K4Ta2S11,mp-18664,2,-5.270567337058823,2.9221438939209,-1.3670355968455878,989.9143609951567,1.7013,7.614367999999999,12.004990457841895,3.0,-1.0
AgPO3,mp-18702,14,-6.1663019675,4.4055288646220285,-1.9697343132976184,563.3927689405635,2.0266,6.053561,14.20412212184843,3.0,-1.0
Cs2LiMnO4,mp-18722,36,-5.414675541875,4.154833555272912,-1.8942698162263216,626.1742792153523,2.1648,6.08039,12.392097999999999,3.0,-1.0
Na7Fe3O8,mp-18917,2,-5.150554358888889,2.971704676785728,-1.796171141851852,510.1229059079129,2.1599,6.0049474251119825,11.518743290854134,3.0,-1.0
K3MnO4,mp-19140,121,-5.256919823125,2.5466429700248634,-1.7825804437018962,616.1366996691797,1.9861,6.5887079330091725,11.00535773181449,3.0,-1.0
MnSe2O5,mp-19175,15,-5.9643239703125,3.988619225404399,-1.5016981430065846,487.6848007712204,2.4005,6.009818341170554,11.068666224935914,3.0,-1.0
KCr3O8,mp-19335,12,-6.7912315262500025,2.7816809770605566,-1.9582427673333336,385.7307541962375,1.9151,5.232040510404425,15.728422373863536,3.0,-1.0
Te2MoO7,mp-19453,14,-6.043447155750001,4.777382445079066,-1.7113568386250009,643.9133545468673,2.81,4.389221,16.05700019611487,3.0,-1.0
VAg2(PO4)2,mp-19478,14,-6.506465756346151,4.401980297509218,-2.0557800986904766,688.9957096775778,2.0141,6.360375,14.095456,3.0,-1.0
MnTe2O5,mp-19503,133,-6.05958475046875,4.926285702860548,-1.6851115600768978,1052.0453299670714,2.3706,8.94670831,13.14340518,3.0,-1.0
Mg3As2,mp-1990,206,-3.4485853522500003,3.0479145688478995,-0.6247699602499999,970.8899252916173,1.431,10.804316431263716,10.804316431263716,3.0,-1.0
Li2Fe2(MoO4)3,mp-21778,60,-6.782623309473684,3.320361750845996,-2.1413724564035084,1211.0308287579762,2.7709,9.480976,13.210348000000002,3.0,-1.0
Na5CoO4,mp-21792,61,-4.44081717275,2.790375267744168,-1.561793097416667,1132.4883567014606,1.4522000000000002,6.01030155,18.01309139,3.0,-1.0
K2Co2(SO4)3,mp-21807,198,-5.9807343943421065,3.1513000907010493,-2.083029725414473,1020.6801404915084,2.7186,10.068464,10.068464,3.0,-1.0
PbS2O3,mp-21904,61,-5.5365700093750005,4.981053519142165,-1.6372994743750002,851.6382313569337,3.4725000000000006,7.077002,16.435085,2.0,1.0
Sr(FeO2)2,mp-21926,14,-6.6001019294642855,4.115624740182445,-2.2935092311309524,849.8978093193283,1.8882,8.246906,12.243038952910752,3.0,-1.0
Na5NiO4,mp-21996,61,-4.1017744085,2.826536242174527,-1.3845684446666666,1116.872992010715,1.8963,5.983789,18.051117,3.0,-1.0
RbFe(SeO4)2,mp-22038,150,-5.449317537708333,3.3292062879859032,-1.4764272328906252,852.3698719487564,2.2467,9.113413000690187,10.32836959523564,3.0,-1.0
Sc2PbS4,mp-22630,62,-6.214272993571428,4.609295793655359,-1.8900523153571425,612.9756589326959,1.7383999999999995,3.7811839999999997,13.771465,3.0,-1.0
HgCl2,mp-22855,62,-1.9341137158333328,4.602845244468777,-0.99698627634,391.78350822669444,3.1737,4.36734,13.584397000000001,0.0,1.0
PBr5,mp-22874,57,-2.6030638683333334,3.1232312973686005,-0.3367441080952381,915.5283636288902,1.6353,5.979718,17.405303,2.0,1.0
CsI3,mp-22876,62,-2.199273324375,3.9853866197594736,-0.8324132701077587,856.0114908791995,2.0157000000000003,7.226578,11.318011,3.0,-1.0
KInBr4,mp-22932,52,-2.918062082916667,3.3136022172707915,-1.1830972767499999,949.2013004440746,2.8289,8.056697999999999,10.880457,3.0,-1.0
VCl3O,mp-22938,62,-4.690448269,1.813629944149538,-1.6086233752060004,634.68571439543,2.9013,5.390512,11.985414,0.0,1.0
K2TeBr6,mp-22963,14,-2.728965508888889,3.3969837733018786,-1.0416701684444445,669.9093380908984,2.3360000000000003,7.689057000000001,13.260511334974227,3.0,-1.0
CCl3F,mp-23071,61,-3.89185434425,1.6743724022889923,-1.0100775914440001,1089.8655594490388,4.8988,6.2901489999999995,16.971055,0.0,1.0
WCl6,mp-23178,164,-4.288716118571428,2.887145404379154,-1.3628257856514283,684.2399245018613,1.7471,6.21537,11.27471062327637,0.0,1.0
SrI2,mp-23181,61,-3.2733793391666666,4.352103801211596,-1.6942105113888888,1042.1738437028837,3.8425,8.037647,15.582775,3.0,-1.0
SnBr4,mp-23216,14,-2.801691585,2.994719924131497,-0.6902359820000001,972.1876707620308,2.7107,7.6248770000000015,11.460946986169029,0.0,1.0
PCl5,mp-23228,85,-3.0166723754166664,1.914661179270316,-1.0695822512285715,722.4016514779934,1.7945,7.5976339999999984,9.751023,0.0,1.0
NbCl5,mp-23307,12,-4.455248730277777,2.2493204672813865,-1.7268220763277773,1196.7084397968385,2.2207,6.4134654275293315,13.677699177056425,0.0,1.0
AsBr3,mp-23317,19,-2.85505392125,3.0240813603703707,-0.462579415,691.0678942857674,3.2023,4.687197,13.162131,0.0,1.0
PAuCl4,mp-23355,14,-3.27518644375,3.2238818380101115,-0.9914245590185716,761.7998691551159,2.6329,6.530183,15.201820999999999,0.0,1.0
PNCl2,mp-23375,62,-4.929639192708334,1.7384170631997975,-0.9612741920761904,1328.339452123335,4.1175,6.553794,14.740032000000001,0.0,1.0
GaSeBr7,mp-23376,7,-2.4813127733333333,3.3357875394945373,-0.4832580222048613,704.888972191964,2.1839,6.773282000000001,15.312787234240801,0.0,1.0
Bi2(MoO4)3,mp-23388,14,-6.7114560307352935,5.927745054879466,-1.9660452463235287,1005.973179993609,2.6349,7.836094,12.019857580686553,3.0,-1.0
Rb2AgI3,mp-23399,62,-2.6635547225,4.0834407310144725,-1.1026110569444445,1072.7757932002216,2.5762,4.986771,20.383963,3.0,-1.0
K2TeBr6,mp-23411,128,-2.716416631111111,3.457366739178906,-1.029121290666667,658.2093606935767,2.2277,7.701414999999999,11.097445,3.0,-1.0