pretty_formula,task_id,spacegroup.number,final_energy_per_atom,density,formation_energy_per_atom,volume,band_gap,min_abc,max_abc,Dimension,Dim
BaGe2,mp-2139,62,-4.25193338125,5.020841151455595,-0.5302578679166666,747.7312264437235,0.5723999999999996,6.877045,11.729169,3.0,-1.0
SrNiN,mp-21524,62,-5.822978080833334,5.041450539298396,-0.6822813738488883,633.6695055584555,0.0,5.223433999999999,13.286229999999998,3.0,-1.0
CuAs2PbO7,mp-21560,14,-5.84034675590909,5.516986136892488,-1.5812786803409096,641.2038579334172,0.4590000000000001,5.703857,14.195406013156862,3.0,-1.0
Sc2Fe3Si5,mp-21588,128,-7.210552513250001,4.839936061363306,-0.6904008182500008,546.0285840329591,0.0,5.2805870000000015,10.168727,3.0,-1.0
ZrCrSi2,mp-21591,55,-7.883912419166666,5.5235845360162745,-0.621068384166667,719.3083598307152,0.0,8.024479,9.808432,3.0,-1.0
Ba3Ge4,mp-21596,136,-4.032688485357143,5.055930630788357,-0.5685422125000004,922.9531507289107,0.0,8.678078,12.255543,3.0,-1.0
Sb2Se3,mp-2160,62,-4.0046803760000005,5.341825109233409,-0.2555329934062499,597.3411343742918,0.8567000000000005,4.029937,12.842946000000001,2.0,1.0
TiMnSi2,mp-21606,55,-7.6242390504166675,4.998157489609817,-0.6472824186637934,633.799796644666,0.0,7.7193830000000005,9.481698,3.0,-1.0
SrCuN,mp-21609,62,-5.144513241111111,5.06443346711232,-0.5641265374599991,649.8868381632205,0.2620999999999998,5.397571,13.267148,3.0,-1.0
In2Cu2O5,mp-21617,33,-5.338583027222223,6.4766415018189125,-1.4574599001388893,447.88578997754854,0.0,3.348533,12.462299,3.0,-1.0
BaNiN,mp-21653,62,-5.787868016666668,5.7236877451218655,-0.5706747841266662,731.1891636127945,0.0,5.450561,13.757119,3.0,-1.0
TiFeSi2,mp-21662,55,-7.484705872291666,5.1432356942957265,-0.6806751381250002,619.435662759131,0.0,7.579203,9.530448,3.0,-1.0
Sc2V3Ge4,mp-21719,62,-7.1144022966666665,6.146050770908375,-0.624539203333333,576.3436802493495,0.0,6.6374889999999995,12.795276,3.0,-1.0
Cu4As2O9,mp-21770,62,-5.509014168333334,4.763868153730591,-1.247277321083334,764.0947052960066,0.0,6.512909,14.084385999999999,3.0,-1.0
Nb3PbS6,mp-21852,193,-6.936680126500001,5.054697814865092,-1.451229987375001,445.66811606003415,0.0,5.859571820469477,14.988189000000002,3.0,-1.0
Sc11(AlGe4)2,mp-21931,139,-6.247332605714287,4.5730458785796735,-0.8124500030952382,820.3468059090072,0.0,10.538904527855776,10.538904527855776,3.0,-1.0
BaSb2,mp-2196,11,-4.113606211111111,5.7909948142895376,-0.7212817744444445,655.2359401223159,0.0,4.469571,12.662013330975844,3.0,-1.0
TlCu7S4,mp-21964,85,-4.127869793125,6.527369371606689,-0.38219819833333385,791.1373970602257,0.6868000000000007,7.5781800000000015,10.217473,3.0,-1.0
V8Ga41,mp-21965,148,-4.197795211836735,6.419345183006589,-0.18099594321428555,844.8854254184271,0.0,9.49190403855038,9.491904660176589,3.0,-1.0
CsIn5S8,mp-22007,12,-4.065940529285714,4.537911505706253,-1.0346733894950741,352.5751983353618,1.5399000000000005,9.46527775783944,9.87440626135673,3.0,-1.0
PbSe,mp-22009,42,-4.091367965,4.062929403870794,-0.4870886911718748,233.9099758147641,1.3139,4.41488995946275,12.401111415262948,2.0,1.0
NbSe2,mp-2207,194,-6.5379107633333335,5.7424276206556835,-0.8402014315625005,145.06303968923132,0.0,3.48940356000105,13.756998999999999,2.0,1.0
KIn5S8,mp-22199,12,-4.074075693571428,4.194108185436493,-1.0274516555714288,344.33651800185316,1.5279000000000005,9.3545622912248,9.838579203898293,3.0,-1.0
Cs2MnSnTe4,mp-22235,70,-4.046986598125,4.495855654929208,-0.6050757494396546,701.6585999653697,0.5907,8.552218479483846,15.299072226519131,3.0,-1.0
Zn(InS2)2,mp-22253,156,-3.8921070885714286,4.16286119709467,-0.9413827260714284,168.85369372336712,0.10740000000000016,3.923707302821657,12.66446,2.0,1.0
SnS,mp-2231,62,-4.5106891375,4.9001342636386935,-0.7694082765625003,204.37625934004453,1.1111000000000004,4.0239720000000005,11.432652000000001,2.0,1.0
WS2,mp-224,194,-7.895419978333333,6.576662734574941,-1.2607179104166673,125.21970153040388,1.5656999999999996,3.1907306611089887,14.202402,2.0,1.0
GeS,mp-2242,62,-4.62989638375,3.954535749023096,-0.5818875228125,175.86564290010932,1.237,3.6658809999999997,10.769622,2.0,1.0
Zr3P,mp-22447,86,-8.626327423125,6.378793451366758,-0.8622304852678582,634.4474930966562,0.0,5.3807519999999975,10.858663,3.0,-1.0
InCu(PSe3)2,mp-22449,163,-4.0593702595000005,4.705245794747616,-0.19407716062053595,504.00923295961474,0.20869999999999989,6.450033740821673,13.98891,2.0,1.0
Cs6InAs3,mp-22506,11,-2.5676080669999997,4.4425079279493485,-0.35746274925862104,849.9967615730968,0.4969999999999999,6.466332,12.443514822149329,3.0,-1.0
Sc3P2,mp-22600,62,-7.245438417000001,3.4556334400663262,-1.2806426094285712,378.3033516735079,0.0,3.783601,14.435274,3.0,-1.0
InAg(PS3)2,mp-22661,163,-4.43574074,3.2493498500813724,-0.7108656742559532,487.5538590448666,1.2268,6.259189526185799,14.369966,2.0,1.0
AgAsPbS3,mp-22665,14,-4.187970247083333,5.493035443621213,-0.5840884005902774,587.8926959589296,1.4281,6.117401,12.718345,3.0,-1.0
CuSeO3,mp-22688,61,-5.15841112425,4.668851343000644,-1.0919882134687495,542.0428164638371,0.2317,6.035938,12.360797999999999,3.0,-1.0
Bi2S3,mp-22856,62,-4.3800380255,6.478231082781669,-0.7402303813749995,527.1660002917807,1.5027,4.021421,11.735325,2.0,1.0
SbSBr,mp-22971,62,-3.7436826241666665,4.312449749327714,-0.664043408541667,359.99597264441763,1.8194,3.994595,10.385603,1.0,1.0
CuBiS2,mp-22982,62,-4.341090581875,6.2518509166547735,-0.6072854034375004,357.6739827443239,0.4999000000000002,3.949304,14.394376000000001,3.0,-1.0
SbSeI,mp-22996,62,-3.3678399758333337,5.10896610551264,-0.3181981982812505,425.94389578909187,1.4167999999999998,4.187346,11.100488,1.0,1.0
BiSeI,mp-23020,62,-3.3859784825,6.3258583000865265,-0.4159923482812502,435.5874447609272,1.6111,4.2739910000000005,11.277488,1.0,1.0
SbSI,mp-23041,62,-3.575315650833333,4.662200824088629,-0.5333144102083333,399.9503836663137,1.6748999999999996,4.110742,10.78673,1.0,1.0
Pb5(SI3)2,mp-23066,12,-3.3692842146153845,6.118759822077648,-0.7036464627884615,505.19842487558884,1.9432,7.864607537985668,15.010291812730696,2.0,1.0
Cu5Se2(ClO4)2,mp-23119,14,-4.7808285449999985,4.625411926842526,-1.0184237209533824,484.33248226890083,0.0,5.678136859489036,13.910932,3.0,-1.0
AgHgSI,mp-23140,19,-2.409418715625,6.165989351059108,-0.37610900307291706,503.5246495918721,1.3679,7.265917999999999,8.791262,3.0,-1.0
IO2,mp-23170,14,-4.04511860125,4.975168460097908,-0.7066707504166665,424.2913015094889,1.5220999999999996,7.011995,8.334021230433482,2.0,1.0
HgI2,mp-23173,36,-1.410364738333333,5.169871713786026,-0.29312954,291.9017079977234,2.5784,4.6557058578018005,14.381704999999998,0.0,1.0
ReCl3,mp-23174,166,-5.170458934583333,4.277347393414921,-1.1189389057783334,681.4746073327916,0.9749,9.39364018993686,9.393640483481578,2.0,1.0
HgI2,mp-23192,137,-1.4301351133333335,5.324168651514593,-0.3128999150000002,283.44225777933593,1.8528,4.520633,13.869669,2.0,1.0
TiI3,mp-23264,59,-3.9216503325,4.3596402435706905,-0.8047678670833336,652.9662763196811,0.2019000000000002,6.4770900000000005,13.196221,1.0,1.0
WCl3,mp-23269,148,-5.404802386666668,4.376432973357969,-1.2248825366116662,660.6569041799023,0.0,9.635837696195651,9.635837706891602,0.0,1.0
TeI,mp-23273,2,-2.39814969375,4.744108426368167,-0.06449292125000028,712.6559126859729,0.8736000000000002,8.41461,10.180743539236564,1.0,1.0
PtCl2,mp-23290,166,-3.6280955944444435,5.133821904438362,-0.7685590399511111,516.2081519926676,1.8306,8.620613353886425,8.620613396164918,0.0,1.0
RuBr3,mp-23294,59,-3.867924143125,4.308730257941109,-0.32163182437500026,525.3351129615461,0.0,5.92598,12.413003999999999,1.0,1.0
MoBr3,mp-23312,59,-4.39115328875,3.943335577283174,-0.4520476262500002,565.3723837182813,0.0,6.119478,12.680266,1.0,1.0
BiSBr,mp-23324,62,-3.762380565,5.8213552703682065,-0.7623969927083342,366.2027087160548,2.0352,4.0886629999999995,10.577375,1.0,1.0
Hg3Cl4O,mp-23333,198,-2.1849883325,5.815850396381856,-0.9134745236612504,867.5013991057318,1.4906,9.537255,9.537255,0.0,1.0
KFeBr3,mp-23348,62,-3.8527955365,3.8061248392049656,-0.9545592471,584.0146847215037,0.08210000000000006,4.066261,15.077003,3.0,-1.0
Rb2CoBr4,mp-23366,62,-3.2923596267857143,3.501326085021025,-1.061346469642857,1042.3947343878576,0.6409,7.736086,13.621552,3.0,-1.0
MoPCl9,mp-23397,2,-3.679916795454545,2.3121635292802627,-1.1759542789010389,640.5992260194799,0.0,7.2335600000000015,9.836936781647221,0.0,1.0
InSn2I5,mp-23417,140,-2.76268619875,5.259986548837599,-0.4638248843750001,623.0259698702051,1.4497,10.0528150813592,10.0528150813592,2.0,1.0
Y6C2I7,mp-23440,12,-5.618449029333333,5.107490830237142,-1.090417270333333,470.0521620313526,0.0,11.122602619017274,12.927185321221707,2.0,1.0
MnTlI3,mp-23443,62,-3.7469615445,5.8447859373022055,-0.5278820854310347,727.3509935591043,0.0017999999999998015,4.322928,16.431020999999998,1.0,1.0
AgBi3S5,mp-23474,12,-4.213974331666666,6.449788674377055,-0.6731289685879626,460.91607527005164,0.6282000000000005,7.125104825943969,16.696628642722963,3.0,-1.0
NbSeBr3,mp-23498,13,-4.5481323235,4.019493291402087,-0.8465330959687499,680.1274980802773,0.7718,7.148426,12.810898229575939,1.0,1.0
BiSI,mp-23514,62,-3.5850846741666667,5.9027413285534545,-0.6227390768750004,414.0416119742951,1.8826,4.2081,11.071342,1.0,1.0
InPb2I5,mp-23520,140,-2.7861973675,6.114256117018559,-0.5615672493749999,632.108396367293,1.8626000000000005,10.060666127055553,10.060666127055553,2.0,1.0
KSn2I5,mp-23534,140,-2.8213725925,4.643445678207307,-0.7276718759999999,651.5931036668055,1.5640999999999998,10.247250443742018,10.247250443742018,3.0,-1.0
CuHgSCl,mp-23567,55,-2.952281341875,5.912088931565938,-0.66984937222125,745.2180506334648,0.6669,4.056197,18.398981,3.0,-1.0
KBa4Bi3O,mp-23571,140,-4.0515572494444445,5.7597984571965615,-1.3068849532500002,709.9899925949874,0.8311999999999999,10.688374785096984,10.688374785096984,3.0,-1.0
Hg6S4Br3Cl,mp-23586,12,-2.1293207882142857,6.390795222512097,-0.5665584843399999,835.0848582220607,1.5595,10.469187464364603,10.594237639515644,3.0,-1.0
Cd3P2,mp-2441,137,-2.76392820725,5.387745915598846,-0.04488000667857115,984.240704905896,0.0,8.879462,12.483260000000001,3.0,-1.0
Sr2Ge,mp-2576,62,-3.1996992325,3.997692098920015,-0.5323691119444439,411.8520522778695,0.3746999999999998,5.196328,9.678237,3.0,-1.0
Sr5Sb3,mp-2585,193,-3.601184816875,4.483290002651341,-0.996883568541667,595.1182611591832,0.0,7.463552,9.595410156120787,3.0,-1.0
Ba3Al5,mp-261,194,-3.290806861875,3.843168391207157,-0.2302079068750005,472.5944571598989,0.0,6.07890014976591,14.767534,3.0,-1.0
Ba4Al5,mp-2631,194,-3.155456891111111,3.9013468771622097,-0.2217055055555556,582.448535841922,0.0,6.1203942726509055,17.954286,3.0,-1.0
MgNi2,mp-2675,194,-4.607397300416666,6.03250148455726,-0.2205461637499996,312.0228249182331,0.0,4.792762306319499,15.68498,3.0,-1.0
Cu4(BiS2)5,mp-27124,12,-4.339405931578948,6.363403332860818,-0.6248324105921057,422.6723916255719,0.0,9.006504237041641,12.912558994349954,3.0,-1.0
Ca5Bi3,mp-27145,62,-3.5507424028125,5.157825652621246,-0.8384796115625002,1065.4224249855163,0.0,8.481985,12.841285000000001,3.0,-1.0
Sc3Co,mp-27162,62,-6.748638486875,3.9597975255492113,-0.2222072093749992,650.1625701669004,0.0,5.814247,13.016755999999999,3.0,-1.0
FeP4,mp-27164,14,-6.395696788333334,4.11753428477632,-0.3710675231904759,434.91859578204765,1.0697,4.620069,13.688015,3.0,-1.0
Zr9S2,mp-27191,141,-8.355301206136364,6.32391132544513,-0.7302752603409111,929.6901471282193,0.0,11.91430120762825,11.91430120762825,3.0,-1.0
SnI2,mp-27194,12,-2.844591024444445,4.969528790340791,-0.4920586627777779,373.4250946210947,1.8334,7.751395622741108,11.166451417227812,2.0,1.0
In4Bi2S9,mp-27195,11,-4.204447076666667,5.2141472898341235,-0.8681995872083339,742.5513296151064,1.7134999999999998,3.9778379999999998,16.53421460009232,3.0,-1.0
ReP4,mp-27267,61,-7.140874236,6.464653390919657,-0.32134010985714384,637.233316867327,0.7567000000000004,6.269371,10.936810000000001,3.0,-1.0
Tl4HgBr6,mp-27293,128,-2.5419504313636363,6.5578122220364055,-0.7626912018181821,758.4040364319045,1.832,9.111944,9.134369,3.0,-1.0
Rb3Au3Cl8,mp-27301,15,-3.0105011775,4.251460706006004,-1.382354416684286,883.4369044020357,0.8199000000000001,7.270386918162543,18.760962245987415,3.0,-1.0
Na3(CuS)4,mp-27321,55,-3.9709223854545455,3.812932737005546,-0.8588548584090913,393.1826153535222,0.0,3.7557660000000004,14.584764000000002,3.0,-1.0
CsCuBr3,mp-27336,20,-2.9126644489999998,4.354763692369664,-0.931586716586207,665.2636078252476,0.3765,7.588965416417513,13.059745,3.0,-1.0
ReCl4,mp-27340,13,-4.488277401,3.6696233320696097,-0.9962911826079996,593.7267286556844,0.0,6.432367,13.084165434771373,1.0,1.0
Tl4HgI6,mp-27375,128,-2.275945929090909,6.718604287588514,-0.5582761131818181,879.6506544187152,1.1934,9.513062,9.616011,3.0,-1.0
Ba(SiNi)2,mp-27388,63,-5.420427912,5.179847831811588,-0.5544534660000003,199.3249116090656,0.0,4.214201603445426,11.434814999999999,3.0,-1.0
Sn4P3,mp-27410,166,-4.653700907142857,5.636037689248044,-0.04253733510203972,167.2788309603802,0.0,12.184902189028929,12.184902815800418,2.0,1.0
TlP5,mp-27411,26,-4.929329145833333,4.0639802930565985,-0.024648764642857767,587.1604883839652,1.4193999999999996,6.521197,12.395946,2.0,1.0
Au2Se4O11,mp-27441,15,-4.953259493235295,5.1957114450956645,-0.9983342493014704,566.1784553583699,1.507,10.63831657275163,13.851267525364456,3.0,-1.0
RbCrI3,mp-27442,5,-3.8140860755,4.206712450178756,-0.7729621979999998,818.1720779552072,0.1919,8.111664760223082,14.420916416284573,3.0,-1.0
Ag4P2S7,mp-27482,15,-4.101178232307692,4.118411402268162,-0.5267378627449637,578.8931235930537,1.6556000000000002,6.407832364616603,16.53335430858049,3.0,-1.0
Cr2Te3,mp-2750,163,-5.944116911,6.380602184057134,-0.19691736499999948,506.74681924907316,0.0,6.897260539961428,12.300058,3.0,-1.0
Rb2CoI4,mp-27517,11,-3.075682207857142,3.808470436508565,-0.9091912935714284,643.1061788979615,0.5718999999999999,7.823005999999999,10.551087903057674,3.0,-1.0
Si(PbSe2)2,mp-27532,14,-4.356228735,5.823752030452503,-0.5227638677678571,864.8919880959537,1.8175,7.386488000000001,13.990645289243595,3.0,-1.0
V2(CuO2)5,mp-27550,14,-6.044925891323531,4.602602323030452,-1.4710141161764707,836.4485994880583,0.0,6.333508999999999,16.47972127528497,3.0,-1.0
TlPbI3,mp-27552,63,-2.791133822,6.0402878620838445,-0.6618662430000004,435.6215032572197,2.3962000000000003,8.071428601821736,12.008534,2.0,1.0
Li8Pb3,mp-27587,166,-2.7287401890909093,5.315384492278182,-0.3278925396969696,211.536437057784,0.0,11.100741239813225,11.10074153803087,2.0,1.0
As4(Pb3S5)3,mp-27594,160,-4.461639433214286,5.891340382438752,-0.7421699598883933,745.652384468722,1.7005,10.777281440338282,10.777281882285765,3.0,-1.0
Te3Cl2,mp-27628,14,-2.9170291319999997,4.363337455416245,-0.5295081833040001,690.6608030654356,1.3668999999999998,7.552473,12.160528910658163,2.0,1.0
AuCl3,mp-27647,14,-2.4644213725,3.790952669122004,-0.7055627549449999,531.4589773971811,1.3933,6.929813,11.909903,0.0,1.0
Te2Br,mp-27648,62,-2.8091073329166663,4.9143762527548365,-0.16793119958333294,905.8374935162883,0.7690999999999999,4.0490910000000016,16.702413,1.0,1.0
Nb2P5,mp-27672,62,-7.312633908214287,5.025060980889187,-0.5599139957653065,450.3149779929786,0.0,3.3576349999999997,16.873820000000002,3.0,-1.0
AuI,mp-27725,138,-2.47527234125,6.7578262817418695,-0.07632526375000026,318.32751561125417,2.0942,4.605302,15.009214000000002,1.0,1.0
PdI2,mp-27747,14,-2.99296725,5.45671607077568,-0.25033157000000017,438.48660625281616,0.9557000000000002,7.088158,8.977339,2.0,1.0
Nb3Br8,mp-27771,166,-4.874644931363637,4.8499553474862775,-0.9292515277272728,628.5805208454317,0.05900000000000016,14.676687809916382,14.676687902505114,2.0,1.0
Nb3I8,mp-27772,166,-4.385477124545455,5.5986487428005125,-0.5222029390909093,767.5647323406502,0.08309999999999995,15.566740171187673,15.566740483699277,2.0,1.0
Cd2AsCl2,mp-27776,14,-2.735537186,4.477476481896739,-0.9330172103040002,549.8437732130184,1.0295,8.002265,9.372825,3.0,-1.0
Ba(GeP)2,mp-27809,105,-4.902092695,4.453908962323305,-0.5037730424285719,513.8373976798276,0.5152000000000001,7.722552,8.615967,3.0,-1.0
Ba(GeAs)2,mp-27810,105,-4.5982951955,5.175357459083671,-0.5016425254999994,555.0151518122401,0.046399999999999775,7.935410000000001,8.813858999999997,3.0,-1.0
ZnP2,mp-2782,92,-4.27724494625,3.4898806722834115,-0.2484731686309528,484.78559205294516,1.4666,5.101507,18.627421,3.0,-1.0
Ba3(Si2P3)2,mp-27887,11,-5.267585814615385,3.669016240184269,-0.6569793731868134,642.819545547233,0.6154999999999999,7.370541999999999,11.642043464161091,3.0,-1.0
Li7Si2,mp-27930,55,-2.904237790833333,1.29560711911516,-0.2138946678703704,537.0601904617068,0.0,4.4763269999999995,14.911833999999999,3.0,-1.0
Tl6SI4,mp-27938,128,-2.8098745877272724,6.5540304383673975,-0.6517874780113634,894.8640866579332,1.7784000000000004,9.489682,9.936964999999999,3.0,-1.0
Sn(SbTe2)2,mp-27947,166,-3.729035198571428,6.146180766792537,-0.18035261928571394,235.76205462686968,0.28420000000000023,14.383216942011304,14.383217513498574,2.0,1.0
Zr3(Cu2Si3)2,mp-27961,139,-6.260669074615384,5.846673077893419,-0.5228373292307691,197.77879041012028,0.0,14.400496381913646,14.400496381913646,3.0,-1.0
Ca3Al2Ge3,mp-27997,62,-3.955203780625,3.511337958623833,-0.5330744225000004,741.7408783138585,0.0,4.369357,14.840859,3.0,-1.0
Rb3Mn2Br7,mp-28002,139,-4.009611120833333,3.778693451457324,-1.2826527093175286,406.7563080275255,1.5518,14.422187858114768,14.422187858114768,3.0,-1.0
BaHgS2,mp-28007,26,-3.779167166875,5.7062505005785225,-1.487009434687501,467.9883927574821,1.3288000000000002,4.2890559999999995,14.626304000000001,3.0,-1.0
TcP4,mp-28026,61,-6.813172754999999,4.640956486515432,-0.4104200838571416,635.154235054226,0.8460999999999999,6.276807,10.913793,3.0,-1.0
TcP3,mp-28029,62,-7.094565195,5.09327311765305,-0.44444582142857136,248.98115355306,0.3859000000000013,3.116889,15.442661,3.0,-1.0
Cu2P7,mp-28034,12,-5.221955630277779,3.5202173533493566,-0.10068736694444406,648.9067766147631,0.9107000000000004,7.3289412187534975,14.687739456989867,3.0,-1.0
BaP10,mp-28035,36,-5.354701838636363,2.9005640409180926,-0.25908098006493546,511.878556261566,1.4044999999999996,7.258651569621731,12.140395,3.0,-1.0
Mo2SBr2,mp-28037,63,-6.516908958666666,5.079215140191505,-0.8292831572916659,752.758248079553,1.1341,9.88353371078634,12.065928999999999,2.0,1.0
NbTeBr3,mp-28038,13,-4.401460205,4.492249698437393,-0.7703830869999997,680.4702769956808,0.6276000000000002,7.039281,12.81756574526973,1.0,1.0
LiGeTe2,mp-28060,2,-3.620022162916667,4.736544893461881,-0.4153840175000004,704.2056289040283,0.4353000000000001,7.342836,11.479945328845648,3.0,-1.0
Na2Mn2S3,mp-28079,15,-5.56547250357143,2.695294850650081,-1.0838029357645738,621.1415651004082,0.5011999999999999,6.9490232616777154,10.047868303091807,3.0,-1.0
K2SnTe5,mp-28080,140,-3.278346101875,4.747162364471686,-0.5349868019999997,584.0942103173553,0.5813999999999999,9.897368962942576,9.897368962942576,3.0,-1.0
Sb2S3,mp-2809,62,-4.3827542459999975,4.27822535984747,-0.6473598298749991,527.4243234630642,1.3091,3.87034,12.133897,1.0,1.0
Au2Se2O7,mp-28095,32,-4.809439351818182,6.100338606602298,-0.8767807775852281,361.4052159914103,1.3063000000000002,4.297599,11.587503,2.0,1.0
Fe2MoP12,mp-28104,60,-6.5546293900000006,4.413376905411888,-0.3716241148571432,871.8724451613325,0.02070000000000149,5.686673000000001,13.769855999999999,3.0,-1.0
Na4Ge2Te5,mp-28107,2,-3.336085613181818,4.090720557104214,-0.5887065925757572,710.5685464868408,1.1111,8.007261,10.850013710264792,3.0,-1.0
MoS2,mp-2815,194,-7.239072113333332,4.053379365580824,-1.3085311920833338,131.15105417850478,1.4648999999999996,3.1903153919636225,14.879004,2.0,1.0
Ca3C3Cl2,mp-28160,63,-5.69172242,2.5008242051849963,-1.1661169583149986,301.68305801699216,1.3268,7.026278830676165,11.566978,3.0,-1.0
FeSeCl7,mp-28189,1,-3.29717971,2.2593100799389814,-0.9924162439070838,562.9564664159574,1.3313,6.61185,10.361000801944424,0.0,1.0
Sr4(PPd)5,mp-28201,63,-5.212795953571429,5.944630038946985,-0.946812855680272,579.5900728274216,0.0,8.705687,15.909481829753759,3.0,-1.0